                               Psi4 1.1a2.dev170

  ==> Input File <==

--------------------------------------------------------------------------
memory 4000 Mb

molecule conf4 {
0 1
C          1.24300       -0.55300       -0.65700
O          1.24700        1.78400       -0.14900
C          0.57800        0.61900       -0.32200
C         -0.80200        0.60500       -0.23200
H         -1.31100        1.51600        0.01000
O          0.98900        3.93900        2.15400
C         -1.51600       -0.55900       -0.45500
C         -0.84400       -1.72900       -0.77500
C          0.53600       -1.71800       -0.87700
H          1.05700       -2.61900       -1.13400
C          1.85900        2.01700        1.08900
H          2.72600        2.63500        0.90300
H          2.19700        1.10200        1.55600
C          1.00100        2.75300        2.09900
O          0.26400        1.97900        2.87700
H         -0.24600        2.54100        3.45400
Cl        -1.67800       -3.21900       -1.06200
Cl         2.97000       -0.56900       -0.82600
Cl        -3.24100       -0.50300       -0.32300
}
set globals {
  reference rhf
  opt_type ts
  g_convergence gau_tight
  basis 6-31G(d)
}
optimize('scf')
--------------------------------------------------------------------------

    Molecular point group: c1
  Charge       = 0
  Multiplicity = 1
  Basis Set: file /usr/local/software/miniconda2/envs/p4env/share/psi4/basis/6-31g_d_.gbs
  Basis Set: file /usr/local/software/miniconda2/envs/p4env/share/psi4/basis/cc-pvdz-jkfit.gbs
  @DF-RHF Final Energy: -1908.87305534826851
    Total Energy =                      -1908.8730553482685082
    Molecular point group: c1
  Basis Set: file /usr/local/software/miniconda2/envs/p4env/share/psi4/basis/6-31g_d_.gbs
  Basis Set: file /usr/local/software/miniconda2/envs/p4env/share/psi4/basis/cc-pvdz-jkfit.gbs
  Basis Set: file /usr/local/software/miniconda2/envs/p4env/share/psi4/basis/6-31g_d_.gbs
  Basis Set: file /usr/local/software/miniconda2/envs/p4env/share/psi4/basis/cc-pvdz-jkfit.gbs
  @DF-RHF Final Energy: -1908.87292246612515
    Total Energy =                      -1908.8729224661251465
  Basis Set: file /usr/local/software/miniconda2/envs/p4env/share/psi4/basis/6-31g_d_.gbs
  Basis Set: file /usr/local/software/miniconda2/envs/p4env/share/psi4/basis/cc-pvdz-jkfit.gbs
  Basis Set: file /usr/local/software/miniconda2/envs/p4env/share/psi4/basis/6-31g_d_.gbs
  Basis Set: file /usr/local/software/miniconda2/envs/p4env/share/psi4/basis/cc-pvdz-jkfit.gbs
  @DF-RHF Final Energy: -1908.87210076695487
    Total Energy =                      -1908.8721007669548726
  Basis Set: file /usr/local/software/miniconda2/envs/p4env/share/psi4/basis/6-31g_d_.gbs
  Basis Set: file /usr/local/software/miniconda2/envs/p4env/share/psi4/basis/cc-pvdz-jkfit.gbs
  Basis Set: file /usr/local/software/miniconda2/envs/p4env/share/psi4/basis/6-31g_d_.gbs
  Basis Set: file /usr/local/software/miniconda2/envs/p4env/share/psi4/basis/cc-pvdz-jkfit.gbs
  @DF-RHF Final Energy: -1908.87462721660654
    Total Energy =                      -1908.8746272166065410
  Basis Set: file /usr/local/software/miniconda2/envs/p4env/share/psi4/basis/6-31g_d_.gbs
  Basis Set: file /usr/local/software/miniconda2/envs/p4env/share/psi4/basis/cc-pvdz-jkfit.gbs
  @DF-RHF Final Energy: -1908.87323993287032
    Total Energy =                      -1908.8732399328703195
  @DF-RHF Final Energy: -1908.87494137761200
    Total Energy =                      -1908.8749413776120036
  @DF-RHF Final Energy: -1908.87496467720507
    Total Energy =                      -1908.8749646772050710
  @DF-RHF Final Energy: -1908.87497977846078
    Total Energy =                      -1908.8749797784607836
  @DF-RHF Final Energy: -1908.87498591116923
    Total Energy =                      -1908.8749859111692331
  @DF-RHF Final Energy: -1908.87498637345470
    Total Energy =                      -1908.8749863734547034
  @DF-RHF Final Energy: -1908.87498660684582
    Total Energy =                      -1908.8749866068458232
  @DF-RHF Final Energy: -1908.87498664870986
    Total Energy =                      -1908.8749866487098643
  @DF-RHF Final Energy: -1908.87498665647263
    Total Energy =                      -1908.8749866564726290
  @DF-RHF Final Energy: -1908.87498664509940
    Total Energy =                      -1908.8749866450993977
  @DF-RHF Final Energy: -1908.87498664762825
    Total Energy =                      -1908.8749866476282477
  @DF-RHF Final Energy: -1908.87498665119483
    Total Energy =                      -1908.8749866511948312
  @DF-RHF Final Energy: -1908.87498664738200
    Total Energy =                      -1908.8749866473820020
  @DF-RHF Final Energy: -1908.87498664962550
    Total Energy =                      -1908.8749866496254981
  @DF-RHF Final Energy: -1908.87498665150792
    Total Energy =                      -1908.8749866515079248
  @DF-RHF Final Energy: -1908.87498665199246
    Total Energy =                      -1908.8749866519924581
  @DF-RHF Final Energy: -1908.87498665324165
    Total Energy =                      -1908.8749866532416490
  @DF-RHF Final Energy: -1908.87498664954842
    Total Energy =                      -1908.8749866495484184
  @DF-RHF Final Energy: -1908.87498665019621
    Total Energy =                      -1908.8749866501962060
  @DF-RHF Final Energy: -1908.87498665052544
    Total Energy =                      -1908.8749866505254431
  @DF-RHF Final Energy: -1908.87498664650684
    Total Energy =                      -1908.8749866465068408
  @DF-RHF Final Energy: -1908.87498664951681
    Total Energy =                      -1908.8749866495168135
  @DF-RHF Final Energy: -1908.87498665417161
    Total Energy =                      -1908.8749866541716074
  @DF-RHF Final Energy: -1908.87498665280009
    Total Energy =                      -1908.8749866528000894
  @DF-RHF Final Energy: -1908.87498664941018
    Total Energy =                      -1908.8749866494101752
  @DF-RHF Final Energy: -1908.87498664544773
    Total Energy =                      -1908.8749866454477342
  @DF-RHF Final Energy: -1908.87498665183284
    Total Energy =                      -1908.8749866518328417
  @DF-RHF Final Energy: -1908.87498665413636
    Total Energy =                      -1908.8749866541363645
  @DF-RHF Final Energy: -1908.87498665560111
    Total Energy =                      -1908.8749866556011057
  @DF-RHF Final Energy: -1908.87498664491977
    Total Energy =                      -1908.8749866449197725
  @DF-RHF Final Energy: -1908.87498664723762
    Total Energy =                      -1908.8749866472376198
  @DF-RHF Final Energy: -1908.87498664778332
    Total Energy =                      -1908.8749866477833166
  Basis Set: file /usr/local/software/miniconda2/envs/p4env/share/psi4/basis/6-31g_d_.gbs
  Basis Set: file /usr/local/software/miniconda2/envs/p4env/share/psi4/basis/cc-pvdz-jkfit.gbs
  @DF-RHF Final Energy: -1908.87498665564544
    Total Energy =                      -1908.8749866556454435
  Basis Set: file /usr/local/software/miniconda2/envs/p4env/share/psi4/basis/6-31g_d_.gbs
  Basis Set: file /usr/local/software/miniconda2/envs/p4env/share/psi4/basis/cc-pvdz-jkfit.gbs
  Basis Set: file /usr/local/software/miniconda2/envs/p4env/share/psi4/basis/6-31g_d_.gbs
  Basis Set: file /usr/local/software/miniconda2/envs/p4env/share/psi4/basis/cc-pvdz-jkfit.gbs
  @DF-RHF Final Energy: -1908.87498665346629
    Total Energy =                      -1908.8749866534662942
  Basis Set: file /usr/local/software/miniconda2/envs/p4env/share/psi4/basis/6-31g_d_.gbs
  Basis Set: file /usr/local/software/miniconda2/envs/p4env/share/psi4/basis/cc-pvdz-jkfit.gbs
  Basis Set: file /usr/local/software/miniconda2/envs/p4env/share/psi4/basis/6-31g_d_.gbs
  Basis Set: file /usr/local/software/miniconda2/envs/p4env/share/psi4/basis/cc-pvdz-jkfit.gbs
  @DF-RHF Final Energy: -1908.87498664662280
    Total Energy =                      -1908.8749866466228013
  Basis Set: file /usr/local/software/miniconda2/envs/p4env/share/psi4/basis/6-31g_d_.gbs
  Basis Set: file /usr/local/software/miniconda2/envs/p4env/share/psi4/basis/cc-pvdz-jkfit.gbs
  Charge       = 0
  Multiplicity = 1
  Basis Set: file /usr/local/software/miniconda2/envs/p4env/share/psi4/basis/6-31g_d_.gbs
  Basis Set: file /usr/local/software/miniconda2/envs/p4env/share/psi4/basis/cc-pvdz-jkfit.gbs

    Orbital Energies (a.u.)
    -----------------------

    Doubly Occupied:

       1A   -104.850650     2A   -104.847568     3A   -104.846767
       4A    -20.637212     5A    -20.619770     6A    -20.575263
       7A    -11.402481     8A    -11.338405     9A    -11.336722
      10A    -11.333618    11A    -11.329592    12A    -11.321005
      13A    -11.284063    14A    -11.275495    15A    -10.583696
      16A    -10.580836    17A    -10.579988    18A     -8.053140
      19A     -8.050280    20A     -8.049692    21A     -8.049632
      22A     -8.049435    23A     -8.046749    24A     -8.046726
      25A     -8.045898    26A     -8.045893    27A     -1.500061
      28A     -1.447850    29A     -1.390598    30A     -1.244664
      31A     -1.187700    32A     -1.154615    33A     -1.115296
      34A     -1.054775    35A     -1.021608    36A     -0.983076
      37A     -0.884306    38A     -0.870406    39A     -0.816899
      40A     -0.747690    41A     -0.738654    42A     -0.722419
      43A     -0.704372    44A     -0.692461    45A     -0.677042
      46A     -0.650197    47A     -0.634922    48A     -0.617582
      49A     -0.609784    50A     -0.594954    51A     -0.575873
      52A     -0.564918    53A     -0.548917    54A     -0.530848
      55A     -0.514072    56A     -0.501569    57A     -0.498562
      58A     -0.486061    59A     -0.475824    60A     -0.461136
      61A     -0.457944    62A     -0.452118    63A     -0.366545
      64A     -0.346737

  @DF-RHF Final Energy: -1908.87498664948089

   => Energetics <=

    Nuclear Repulsion Energy =           1194.2677242389806906
    One-Electron Energy =               -5006.2381588843109057
    Two-Electron Energy =                1903.0954479958490992
    DFT Exchange-Correlation Energy =       0.0000000000000000
    Empirical Dispersion Energy =           0.0000000000000000
    PCM Polarization Energy =               0.0000000000000000
    EFP Energy =                            0.0000000000000000
    Total Energy =                      -1908.8749866494808884
    Molecular point group: c1
  Basis Set: file /usr/local/software/miniconda2/envs/p4env/share/psi4/basis/6-31g_d_.gbs
  Basis Set: file /usr/local/software/miniconda2/envs/p4env/share/psi4/basis/cc-pvdz-jkfit.gbs

  -Total Gradient:
     Atom            X                  Y                   Z
    ------   -----------------  -----------------  -----------------
       1       -0.000000149424     0.000000683398    -0.000000677569
       2        0.000000039613    -0.000000306680     0.000000282316
       3       -0.000000169421     0.000000428339    -0.000001296164
       4        0.000001003684     0.000000537013     0.000001506499
       5       -0.000000039281     0.000000100699     0.000000165831
       6        0.000001087796    -0.000002511322    -0.000001440601
       7       -0.000000661679    -0.000000289726    -0.000001915454
       8       -0.000001285556     0.000000697113    -0.000001259099
       9        0.000001213995    -0.000000589597     0.000000695441
      10        0.000000289704    -0.000000604131     0.000000071443
      11       -0.000000225721    -0.000000001128     0.000000095746
      12       -0.000000004142     0.000000034530     0.000000158402
      13       -0.000000263662    -0.000000436275    -0.000000075279
      14       -0.000001174028     0.000005897637     0.000001158869
      15        0.000000016274    -0.000002890304     0.000001010477
      16        0.000000279811     0.000000098709    -0.000000420497
      17       -0.000000005827    -0.000000302609     0.000000739246
      18        0.000000137561    -0.000000280921     0.000000387192
      19       -0.000000089728    -0.000000264842     0.000000813184

  **** Optimization is complete! (in 46 steps) ****
    Final optimized geometry and variables:
    Molecular point group: c1

    Geometry (in Angstrom), charge = 0, multiplicity = 1:

    C            1.251381144312    -0.560982343778    -0.652103421092
    O            1.352066294040     1.793580281435    -0.213139632918
    C            0.639643440366     0.649864581174    -0.356214545326
    C           -0.739268030756     0.703323156542    -0.277314141143
    H           -1.210806435335     1.645380979617    -0.075859343719
    O            0.688072646708     3.771544436609     2.067241499874
    C           -1.507691025358    -0.430777542410    -0.469251807609
    C           -0.889715870976    -1.640542100672    -0.747362388132
    C            0.490097263286    -1.696875167758    -0.840996113486
    H            0.968595506776    -2.628485188017    -1.069018993790
    C            1.981461380985     2.041467346266     1.025914531833
    H            2.737931114104     2.783487032826     0.830934835085
    H            2.430828119818     1.143965524431     1.424099059375
    C            0.986519027973     2.626360810964     2.016458089542
    O            0.468909910845     1.701466220296     2.815697585219
    H           -0.160749504033     2.117201900833     3.398283382466
    CL          -1.791273428645    -3.098046848699    -0.994527592096
    CL           2.975546055842    -0.663187813395    -0.815940817115
    CL          -3.228498730220    -0.288990401012    -0.352208310254

*** Psi4 exiting successfully. Buy a developer a beer!
