                               Psi4 1.2.1 release

  ==> Input File <==

--------------------------------------------------------------------------
memory 110 Gb

molecule conf6 {
C    -0.275801439181    -1.218187444686     0.225218180745
O    -1.091253612687     0.726958033621     1.354639595894
C    -0.226829935345     0.143603623541     0.490634278571
C     0.754220083251     0.912438554219    -0.106647296036
H     0.799733037470     1.960895083855     0.115799701218
O    -3.599045281549     1.230609404928     2.795017824142
C     1.678580564739     0.344130966820    -0.965274746697
C     1.622603159449    -1.015772901875    -1.230589616585
C     0.645089309323    -1.790499234232    -0.629637388530
H     0.605942949360    -2.842928337832    -0.829086114090
C    -2.287901850412     1.219603171765     0.794572034357
H    -2.878259645135     0.413304865566     0.380991373793
H    -2.075017365582     1.954498952338     0.030283618770
C    -3.061762231350     1.846046253567     1.939762326970
O    -3.071233113258     3.170895731567     1.871037541582
H    -3.559655117550     3.508770047282     2.616421002930
CL     2.747696447464    -1.790880657248    -2.294326315746
CL    -1.477783404150    -2.216747065697     0.972435635967
CL     2.880338662671     1.366439855086    -1.676476924682
}
set globals {
  reference rhf
  g_convergence gau_tight
  basis 6-31G(d)
}
frequency('hf', dertype=1)
--------------------------------------------------------------------------

    Molecular point group: c1
  Charge       = 0
  Multiplicity = 1
  Basis Set: 6-31G(D)
    Blend: 6-31G(D)
  Basis Set: (6-31G(D) AUX)
    Blend: CC-PVDZ-JKFIT
  @DF-RHF Final Energy: -1908.87490606577899
    Total Energy =                      -1908.8749060657789869
    Molecular point group: c1
  Basis Set: 6-31G(D)
    Blend: 6-31G(D)
  Basis Set: (6-31G(D) AUX)
    Blend: CC-PVDZ-JKFIT
  Basis Set: 6-31G(D)
    Blend: 6-31G(D)
  Basis Set: (6-31G(D) AUX)
    Blend: CC-PVDZ-JKFIT
  @DF-RHF Final Energy: -1908.87490554232227
    Total Energy =                      -1908.8749055423222671
  Basis Set: 6-31G(D)
    Blend: 6-31G(D)
  Basis Set: (6-31G(D) AUX)
    Blend: CC-PVDZ-JKFIT
  Basis Set: 6-31G(D)
    Blend: 6-31G(D)
  @DF-RHF Final Energy: -1908.87490554139004
    Total Energy =                      -1908.8749055413900351
  @DF-RHF Final Energy: -1908.87490533389678
    Total Energy =                      -1908.8749053338967769
  @DF-RHF Final Energy: -1908.87490533200071
    Total Energy =                      -1908.8749053320007079
  @DF-RHF Final Energy: -1908.87490566395604
    Total Energy =                      -1908.8749056639560422
  @DF-RHF Final Energy: -1908.87490566306474
    Total Energy =                      -1908.8749056630647374
  @DF-RHF Final Energy: -1908.87490563184633
    Total Energy =                      -1908.8749056318463317
  @DF-RHF Final Energy: -1908.87490563230722
    Total Energy =                      -1908.8749056323072182
  @DF-RHF Final Energy: -1908.87490587241700
    Total Energy =                      -1908.8749058724170027
  @DF-RHF Final Energy: -1908.87490587570028
    Total Energy =                      -1908.8749058757002786
  @DF-RHF Final Energy: -1908.87490576145569
    Total Energy =                      -1908.8749057614556932
  @DF-RHF Final Energy: -1908.87490575974493
    Total Energy =                      -1908.8749057597449337
  @DF-RHF Final Energy: -1908.87490544339084
    Total Energy =                      -1908.8749054433908441
  @DF-RHF Final Energy: -1908.87490544162392
    Total Energy =                      -1908.8749054416239233
  @DF-RHF Final Energy: -1908.87490530551850
    Total Energy =                      -1908.8749053055184959
  @DF-RHF Final Energy: -1908.87490530839477
    Total Energy =                      -1908.8749053083947729
  @DF-RHF Final Energy: -1908.87490561512232
    Total Energy =                      -1908.8749056151223158
  @DF-RHF Final Energy: -1908.87490561345930
    Total Energy =                      -1908.8749056134593047
  @DF-RHF Final Energy: -1908.87490549043514
    Total Energy =                      -1908.8749054904351397
  @DF-RHF Final Energy: -1908.87490528800572
    Total Energy =                      -1908.8749052880057206
  @DF-RHF Final Energy: -1908.87490576262348
    Total Energy =                      -1908.8749057626234844
  @DF-RHF Final Energy: -1908.87490576417599
    Total Energy =                      -1908.8749057641759919
  @DF-RHF Final Energy: -1908.87490571861917
    Total Energy =                      -1908.8749057186191749
  @DF-RHF Final Energy: -1908.87490571531180
    Total Energy =                      -1908.8749057153117974
  @DF-RHF Final Energy: -1908.87490548798087
    Total Energy =                      -1908.8749054879808682
  @DF-RHF Final Energy: -1908.87490548950245
    Total Energy =                      -1908.8749054895024528
  @DF-RHF Final Energy: -1908.87490358740797
    Total Energy =                      -1908.8749035874079709
  @DF-RHF Final Energy: -1908.87490357779575
    Total Energy =                      -1908.8749035777957488
  @DF-RHF Final Energy: -1908.87490435974473
    Total Energy =                      -1908.8749043597447326
  @DF-RHF Final Energy: -1908.87490436373673
    Total Energy =                      -1908.8749043637367322
  @DF-RHF Final Energy: -1908.87490233096833
    Total Energy =                      -1908.8749023309683253
  @DF-RHF Final Energy: -1908.87490235419727
    Total Energy =                      -1908.8749023541972747
  @DF-RHF Final Energy: -1908.87490598867998
    Total Energy =                      -1908.8749059886799841
  @DF-RHF Final Energy: -1908.87490598868249
    Total Energy =                      -1908.8749059886824853
  @DF-RHF Final Energy: -1908.87490602600974
    Total Energy =                      -1908.8749060260097394
  @DF-RHF Final Energy: -1908.87490602716457
    Total Energy =                      -1908.8749060271645703
  @DF-RHF Final Energy: -1908.87490596569751
    Total Energy =                      -1908.8749059656975078
  Basis Set: (6-31G(D) AUX)
    Blend: CC-PVDZ-JKFIT
  Basis Set: 6-31G(D)
    Blend: 6-31G(D)
  Basis Set: (6-31G(D) AUX)
    Blend: CC-PVDZ-JKFIT
  @DF-RHF Final Energy: -1908.87490596485804
    Total Energy =                      -1908.8749059648580442
  Basis Set: 6-31G(D)
    Blend: 6-31G(D)
  Basis Set: (6-31G(D) AUX)
    Blend: CC-PVDZ-JKFIT
    Molecular point group: c1
  Charge       = 0
  Multiplicity = 1
  Basis Set: 6-31G(D)
    Blend: 6-31G(D)
  Basis Set: (6-31G(D) AUX)
    Blend: CC-PVDZ-JKFIT

    Orbital Energies [Eh]
    ---------------------

    Doubly Occupied:

       1A   -104.848298     2A   -104.847092     3A   -104.846391
       4A    -20.634190     5A    -20.617639     6A    -20.570692
       7A    -11.401535     8A    -11.337807     9A    -11.337392
      10A    -11.334277    11A    -11.328654    12A    -11.320920
      13A    -11.283790    14A    -11.276748    15A    -10.581562
      16A    -10.580316    17A    -10.579425    18A     -8.051006
      19A     -8.049762    20A     -8.048877    21A     -8.047474
      22A     -8.047453    23A     -8.046223    24A     -8.046219
      25A     -8.045387    26A     -8.045316    27A     -1.497121
      28A     -1.448290    29A     -1.387451    30A     -1.244845
      31A     -1.186485    32A     -1.155069    33A     -1.114086
      34A     -1.055394    35A     -1.021822    36A     -0.981207
      37A     -0.884002    38A     -0.857559    39A     -0.825187
      40A     -0.746877    41A     -0.741140    42A     -0.719322
      43A     -0.717920    44A     -0.679395    45A     -0.655807
      46A     -0.651968    47A     -0.633930    48A     -0.630793
      49A     -0.609125    50A     -0.593781    51A     -0.576843
      52A     -0.568326    53A     -0.555935    54A     -0.528327
      55A     -0.501531    56A     -0.498730    57A     -0.487599
      58A     -0.481006    59A     -0.470417    60A     -0.463852
      61A     -0.459435    62A     -0.457206    63A     -0.367518
      64A     -0.346960

  @DF-RHF Final Energy: -1908.87490606762185

   => Energetics <=

    Nuclear Repulsion Energy =           1167.1639081995895140
    One-Electron Energy =               -4952.1642244419672352
    Two-Electron Energy =                1876.1254101747558707
    Total Energy =                      -1908.8749060676218505

  Dipole Moment: [D]
     X:    -1.1766      Y:     1.9046      Z:    -1.1944     Total:     2.5374

    Molecular point group: c1

    Geometry (in Angstrom), charge = 0, multiplicity = 1:

       Center              X                  Y                   Z               Mass
    ------------   -----------------  -----------------  -----------------  -----------------
         C           -0.275801439181    -1.218187444686     0.225218180745    12.000000000000
         O           -1.091253612687     0.726958033621     1.354639595894    15.994914619560
         C           -0.226829935345     0.143603623541     0.490634278571    12.000000000000
         C            0.754220083251     0.912438554219    -0.106647296036    12.000000000000
         H            0.799733037470     1.960895083855     0.115799701218     1.007825032070
         O           -3.599045281549     1.230609404928     2.795017824142    15.994914619560
         C            1.678580564739     0.344130966820    -0.965274746697    12.000000000000
         C            1.622603159449    -1.015772901875    -1.230589616585    12.000000000000
         C            0.645089309323    -1.790499234232    -0.629637388530    12.000000000000
         H            0.605942949360    -2.842928337832    -0.829086114090     1.007825032070
         C           -2.287901850412     1.219603171765     0.794572034357    12.000000000000
         H           -2.878259645135     0.413304865566     0.380991373793     1.007825032070
         H           -2.075017365582     1.954498952338     0.030283618770     1.007825032070
         C           -3.061762231350     1.846046253567     1.939762326970    12.000000000000
         O           -3.071233113258     3.170895731567     1.871037541582    15.994914619560
         H           -3.559655117550     3.508770047282     2.616421002930     1.007825032070
         CL           2.747696447464    -1.790880657248    -2.294326315746    34.968852682000
         CL          -1.477783404150    -2.216747065697     0.972435635967    34.968852682000
         CL           2.880338662671     1.366439855086    -1.676476924682    34.968852682000

  Basis Set: 6-31G(D)
    Blend: 6-31G(D)
  Basis Set: (6-31G(D) AUX)
    Blend: CC-PVDZ-JKFIT

  -Total Gradient:
     Atom            X                  Y                   Z
    ------   -----------------  -----------------  -----------------
       1        0.000000262539    -0.000000184870     0.000000810960
       2       -0.000000133654    -0.000000177082    -0.000000014137
       3        0.000000087890     0.000000042320     0.000000699881
       4        0.000000029838     0.000000216996    -0.000000112427
       5        0.000000007858     0.000000479905    -0.000000016633
       6       -0.000000885097    -0.000000433109     0.000000238105
       7        0.000000690071    -0.000000105411     0.000000444369
       8       -0.000000276662     0.000000113208    -0.000000898269
       9       -0.000000245247    -0.000000132248    -0.000000004085
      10        0.000000034626    -0.000000666758    -0.000000202399
      11       -0.000000198078     0.000000390763    -0.000000006963
      12       -0.000000248099    -0.000000124206    -0.000000022448
      13       -0.000000176309     0.000000266382    -0.000000382109
      14        0.000001346842     0.000001298522     0.000000239549
      15       -0.000000447662    -0.000001001650    -0.000000680659
      16        0.000000177668    -0.000000156662     0.000000326162
      17        0.000000194950     0.000000056856     0.000000056225
      18       -0.000000190484     0.000000075606    -0.000000237794
      19       -0.000000030973     0.000000041462    -0.000000237322

  Vibration                       1                   8                   9
  Freq [cm^-1]                 58.8774i            18.4002             54.9883
  Irrep                           A                   A                   A
  Reduced mass [u]              6.4010              8.7440             14.2252
  Force const [mDyne/A]        -0.0131              0.0017              0.0253

  Vibration                       10                  11                  12
  Freq [cm^-1]                 58.8648             110.8993            174.9283
  Irrep                           A                   A                   A
  Reduced mass [u]              4.9231             10.8290              9.8996
  Force const [mDyne/A]         0.0101              0.0785              0.1785

  Vibration                       13                  14                  15
  Freq [cm^-1]                 193.0395            210.7940            239.0199
  Irrep                           A                   A                   A
  Reduced mass [u]              8.6938             27.7053             13.1856
  Force const [mDyne/A]         0.1909              0.7253              0.4438

  Vibration                       16                  17                  18
  Freq [cm^-1]                 278.3643            298.4437            356.1205
  Irrep                           A                   A                   A
  Reduced mass [u]              6.6763             10.6595             23.7409
  Force const [mDyne/A]         0.3048              0.5594              1.7740

  Vibration                       19                  20                  21
  Freq [cm^-1]                 414.9687            446.0790            468.3371
  Irrep                           A                   A                   A
  Reduced mass [u]              9.0613              3.4894              7.9085
  Force const [mDyne/A]         0.9193              0.4091              1.0220

  Vibration                       22                  23                  24
  Freq [cm^-1]                 521.4727            576.8114            619.2481
  Irrep                           A                   A                   A
  Reduced mass [u]              3.5144              7.1419              2.7076
  Force const [mDyne/A]         0.5631              1.4000              0.6117

  Vibration                       25                  26                  27
  Freq [cm^-1]                 626.9266            685.9530            727.2778
  Irrep                           A                   A                   A
  Reduced mass [u]              4.4144              1.9584              7.3255
  Force const [mDyne/A]         1.0223              0.5429              2.2829

  Vibration                       28                  29                  30
  Freq [cm^-1]                 745.0947            778.0386            815.0127
  Irrep                           A                   A                   A
  Reduced mass [u]              6.3471              4.4904              4.1716
  Force const [mDyne/A]         2.0761              1.6016              1.6326

  Vibration                       31                  32                  33
  Freq [cm^-1]                 856.6070            993.4760           1004.6328
  Irrep                           A                   A                   A
  Reduced mass [u]              5.7144              2.7967              1.9762
  Force const [mDyne/A]         2.4705              1.6263              1.1752

  Vibration                       34                  35                  36
  Freq [cm^-1]                1023.0712           1052.9856           1123.8644
  Irrep                           A                   A                   A
  Reduced mass [u]              1.5625              4.7296              1.7200
  Force const [mDyne/A]         0.9636              3.0897              1.2800

  Vibration                       37                  38                  39
  Freq [cm^-1]                1175.8913           1195.9143           1202.6549
  Irrep                           A                   A                   A
  Reduced mass [u]              7.5126              5.8304              5.5107
  Force const [mDyne/A]         6.1203              4.9130              4.6961

  Vibration                       40                  41                  42
  Freq [cm^-1]                1260.1635           1329.7447           1375.8790
  Irrep                           A                   A                   A
  Reduced mass [u]              2.3706              1.7825              1.2986
  Force const [mDyne/A]         2.2180              1.8571              1.4484

  Vibration                       43                  44                  45
  Freq [cm^-1]                1386.5463           1401.4594           1483.5713
  Irrep                           A                   A                   A
  Reduced mass [u]              1.1984              4.4276              1.8696
  Force const [mDyne/A]         1.3575              5.1236              2.4245

  Vibration                       46                  47                  48
  Freq [cm^-1]                1504.3576           1601.9923           1650.7551
  Irrep                           A                   A                   A
  Reduced mass [u]              5.7737              1.8451              2.8368
  Force const [mDyne/A]         7.6984              2.7899              4.5546

  Vibration                       49                  50                  51
  Freq [cm^-1]                1662.8354           1743.5280           1791.2666
  Irrep                           A                   A                   A
  Reduced mass [u]              1.1521             10.3601              6.4787
  Force const [mDyne/A]         1.8769             18.5554             12.2479

  Vibration                       52                  53                  54
  Freq [cm^-1]                2063.7107           3258.8549           3318.0303
  Irrep                           A                   A                   A
  Reduced mass [u]             10.2778              1.0566              1.1119
  Force const [mDyne/A]        25.7898              6.6116              7.2125

  Vibration                       55                  56                  57
  Freq [cm^-1]                3411.2779           3421.2824           4046.5053
  Irrep                           A                   A                   A
  Reduced mass [u]              1.0937              1.0941              1.0651
  Force const [mDyne/A]         7.4989              7.5455             10.2752

  ==> Thermochemistry Components <==

  Entropy, S
    Electronic S            0.000 [cal/(mol K)]        0.000 [J/(mol K)]       0.00000000 [mEh/K] (multiplicity = 1)
    Translational S        42.496 [cal/(mol K)]      177.803 [J/(mol K)]       0.06772143 [mEh/K] (mol. weight = 253.9304 [u], P = 101325.00 [Pa])
    Rotational S           33.366 [cal/(mol K)]      139.603 [J/(mol K)]       0.05317206 [mEh/K] (symmetry no. = 1)
    Vibrational S          38.235 [cal/(mol K)]      159.976 [J/(mol K)]       0.06093148 [mEh/K]
  Total S                 114.097 [cal/(mol K)]      477.381 [J/(mol K)]       0.18182497 [mEh/K]
  Correction S              0.000 [cal/(mol K)]        0.000 [J/(mol K)]       0.00000000 [mEh/K]

  Constant volume heat capacity, Cv
    Electronic Cv           0.000 [cal/(mol K)]        0.000 [J/(mol K)]       0.00000000 [mEh/K]
    Translational Cv        2.981 [cal/(mol K)]       12.472 [J/(mol K)]       0.00475022 [mEh/K]
    Rotational Cv           2.981 [cal/(mol K)]       12.472 [J/(mol K)]       0.00475022 [mEh/K]
    Vibrational Cv         36.106 [cal/(mol K)]      151.067 [J/(mol K)]       0.05753836 [mEh/K]
  Total Cv                 42.067 [cal/(mol K)]      176.010 [J/(mol K)]       0.06703880 [mEh/K]
  Correction Cv             0.000 [cal/(mol K)]        0.000 [J/(mol K)]       0.00000000 [mEh/K]

  Constant pressure heat capacity, Cp
    Electronic Cp           0.000 [cal/(mol K)]        0.000 [J/(mol K)]       0.00000000 [mEh/K]
    Translational Cp        4.968 [cal/(mol K)]       20.786 [J/(mol K)]       0.00791704 [mEh/K]
    Rotational Cp           2.981 [cal/(mol K)]       12.472 [J/(mol K)]       0.00475022 [mEh/K]
    Vibrational Cp         36.106 [cal/(mol K)]      151.067 [J/(mol K)]       0.05753836 [mEh/K]
  Total Cp                 44.055 [cal/(mol K)]      184.325 [J/(mol K)]       0.07020562 [mEh/K]
  Correction Cp             0.000 [cal/(mol K)]        0.000 [J/(mol K)]       0.00000000 [mEh/K]

  ==> Thermochemistry Energy Analysis <==

  Raw electronic energy, E0
  Total E0, Electronic energy at well bottom at 0 [K]                -1908.87490607 [Eh]

  Zero-point energy, ZPE_vib = Sum_i nu_i / 2
    Electronic ZPE          0.000 [kcal/mol]        0.000 [kJ/mol]       0.00000000 [Eh]
    Translational ZPE       0.000 [kcal/mol]        0.000 [kJ/mol]       0.00000000 [Eh]
    Rotational ZPE          0.000 [kcal/mol]        0.000 [kJ/mol]       0.00000000 [Eh]
    Vibrational ZPE        81.142 [kcal/mol]      339.500 [kJ/mol]       0.12930863 [Eh]       28379.961 [cm^-1]
  Correction ZPE           81.142 [kcal/mol]      339.500 [kJ/mol]       0.12930863 [Eh]       28379.961 [cm^-1]
  Total ZPE, Electronic energy at 0 [K]                              -1908.74559743 [Eh]

  Thermal Energy, E (includes ZPE)
    Electronic E            0.000 [kcal/mol]        0.000 [kJ/mol]       0.00000000 [Eh]
    Translational E         0.889 [kcal/mol]        3.718 [kJ/mol]       0.00141628 [Eh]
    Rotational E            0.889 [kcal/mol]        3.718 [kJ/mol]       0.00141628 [Eh]
    Vibrational E          86.796 [kcal/mol]      363.154 [kJ/mol]       0.13831806 [Eh]
  Correction E             88.573 [kcal/mol]      370.591 [kJ/mol]       0.14115062 [Eh]
  Total E, Electronic energy at  298.15 [K]                          -1908.73375545 [Eh]

  Enthalpy, H_trans = E_trans + k_B * T
    Electronic H            0.000 [kcal/mol]        0.000 [kJ/mol]       0.00000000 [Eh]
    Translational H         1.481 [kcal/mol]        6.197 [kJ/mol]       0.00236046 [Eh]
    Rotational H            0.889 [kcal/mol]        3.718 [kJ/mol]       0.00141628 [Eh]
    Vibrational H          86.796 [kcal/mol]      363.154 [kJ/mol]       0.13831806 [Eh]
  Correction H             89.166 [kcal/mol]      373.070 [kJ/mol]       0.14209480 [Eh]
  Total H, Enthalpy at  298.15 [K]                                   -1908.73281127 [Eh]

  Gibbs free energy, G = H - T * S
    Electronic G            0.000 [kcal/mol]        0.000 [kJ/mol]       0.00000000 [Eh]
    Translational G       -11.189 [kcal/mol]      -46.814 [kJ/mol]      -0.01783068 [Eh]
    Rotational G           -9.059 [kcal/mol]      -37.904 [kJ/mol]      -0.01443697 [Eh]
    Vibrational G          75.396 [kcal/mol]      315.457 [kJ/mol]       0.12015134 [Eh]
  Correction G             55.148 [kcal/mol]      230.739 [kJ/mol]       0.08788369 [Eh]
  Total G, Free enthalpy at  298.15 [K]                              -1908.78702238 [Eh]

*** Psi4 exiting successfully. Buy a developer a beer!
