                               Psi4 1.2.1 release

  ==> Input File <==

--------------------------------------------------------------------------
memory 110 Gb

molecule conf2 {
    C            0.396650384427    -0.795507199289    -1.231870800271
    O           -1.438463790903    -1.643428447857     0.039524318233
    C           -0.356403261108    -0.833271162769    -0.065869920354
    C            0.048086836055    -0.082625645534     1.022676947815
    H           -0.537540433747    -0.119581508509     1.918714403778
    O           -3.075217743102    -0.188230971266     1.732930694947
    C            1.183774135614     0.704957708685     0.953609439542
    C            1.926779326584     0.745711995791    -0.216980459991
    C            1.528408800900    -0.008666737268    -1.306511402800
    H            2.105748076937     0.014786799795    -2.209226666129
    C           -2.664904311559    -1.172968714947    -0.431828043952
    H           -3.243460068553    -2.032149502007    -0.741018147019
    H           -2.552176865113    -0.523212257935    -1.291368102733
    C           -3.444323341238    -0.433684892593     0.635159113887
    O           -4.635475188827    -0.084241049281     0.164981922755
    H           -5.111522049714     0.378747309583     0.848232736218
    CL           3.355405475317     1.713626843670    -0.366836830771
    CL          -0.062785275168    -1.748262957397    -2.608162214193
    CL           1.635628040869     1.620521185508     2.351485543593
}
set globals {
  reference rhf
  g_convergence gau_tight
  basis 6-31G(d)
}
frequency('hf', dertype=1)
--------------------------------------------------------------------------

    Molecular point group: c1
  Charge       = 0
  Multiplicity = 1
  Basis Set: 6-31G(D)
    Blend: 6-31G(D)
  Basis Set: (6-31G(D) AUX)
    Blend: CC-PVDZ-JKFIT
  @DF-RHF Final Energy: -1908.88268631319534
    Total Energy =                      -1908.8826863131953360
    Molecular point group: c1
  Basis Set: 6-31G(D)
    Blend: 6-31G(D)
  Basis Set: (6-31G(D) AUX)
    Blend: CC-PVDZ-JKFIT
  Basis Set: 6-31G(D)
    Blend: 6-31G(D)
  Basis Set: (6-31G(D) AUX)
    Blend: CC-PVDZ-JKFIT
  @DF-RHF Final Energy: -1908.88268571281856
    Total Energy =                      -1908.8826857128185566
  Basis Set: 6-31G(D)
    Blend: 6-31G(D)
  Basis Set: (6-31G(D) AUX)
    Blend: CC-PVDZ-JKFIT
  Basis Set: 6-31G(D)
    Blend: 6-31G(D)
  @DF-RHF Final Energy: -1908.88268570674722
    Total Energy =                      -1908.8826857067472247
  @DF-RHF Final Energy: -1908.88268590452140
    Total Energy =                      -1908.8826859045213951
  @DF-RHF Final Energy: -1908.88268590934490
    Total Energy =                      -1908.8826859093449002
  @DF-RHF Final Energy: -1908.88268565692033
    Total Energy =                      -1908.8826856569203301
  @DF-RHF Final Energy: -1908.88268566033366
    Total Energy =                      -1908.8826856603336637
  @DF-RHF Final Energy: -1908.88268576866653
    Total Energy =                      -1908.8826857686665335
  @DF-RHF Final Energy: -1908.88268576845849
    Total Energy =                      -1908.8826857684584866
  @DF-RHF Final Energy: -1908.88268604226232
    Total Energy =                      -1908.8826860422623213
  @DF-RHF Final Energy: -1908.88268604335508
    Total Energy =                      -1908.8826860433550792
  @DF-RHF Final Energy: -1908.88268615868355
    Total Energy =                      -1908.8826861586835548
  @DF-RHF Final Energy: -1908.88268616101413
    Total Energy =                      -1908.8826861610141350
  @DF-RHF Final Energy: -1908.88268565937256
    Total Energy =                      -1908.8826856593725552
  @DF-RHF Final Energy: -1908.88268566071110
    Total Energy =                      -1908.8826856607111040
  @DF-RHF Final Energy: -1908.88268586234062
    Total Energy =                      -1908.8826858623406224
  @DF-RHF Final Energy: -1908.88268586245113
    Total Energy =                      -1908.8826858624511260
  @DF-RHF Final Energy: -1908.88268560028769
    Total Energy =                      -1908.8826856002876866
  @DF-RHF Final Energy: -1908.88268560077768
    Total Energy =                      -1908.8826856007776769
  @DF-RHF Final Energy: -1908.88268564245163
    Total Energy =                      -1908.8826856424516336
  @DF-RHF Final Energy: -1908.88268528218828
    Total Energy =                      -1908.8826852821882767
  @DF-RHF Final Energy: -1908.88268590857638
    Total Energy =                      -1908.8826859085763772
  @DF-RHF Final Energy: -1908.88268590797429
    Total Energy =                      -1908.8826859079742917
  @DF-RHF Final Energy: -1908.88268591935866
    Total Energy =                      -1908.8826859193586643
  @DF-RHF Final Energy: -1908.88268592159557
    Total Energy =                      -1908.8826859215955665
  @DF-RHF Final Energy: -1908.88268584224124
    Total Energy =                      -1908.8826858422412442
  @DF-RHF Final Energy: -1908.88268584168668
    Total Energy =                      -1908.8826858416866799
  @DF-RHF Final Energy: -1908.88268386574782
    Total Energy =                      -1908.8826838657478220
  @DF-RHF Final Energy: -1908.88268387097969
    Total Energy =                      -1908.8826838709796903
  @DF-RHF Final Energy: -1908.88268433742655
    Total Energy =                      -1908.8826843374265536
  @DF-RHF Final Energy: -1908.88268433784265
    Total Energy =                      -1908.8826843378426474
  @DF-RHF Final Energy: -1908.88268287408232
    Total Energy =                      -1908.8826828740823203
  @DF-RHF Final Energy: -1908.88268289078883
    Total Energy =                      -1908.8826828907888284
  @DF-RHF Final Energy: -1908.88268624113243
    Total Energy =                      -1908.8826862411324328
  @DF-RHF Final Energy: -1908.88268623787940
    Total Energy =                      -1908.8826862378793976
  @DF-RHF Final Energy: -1908.88268627540629
    Total Energy =                      -1908.8826862754062859
  @DF-RHF Final Energy: -1908.88268627732691
    Total Energy =                      -1908.8826862773269113
  @DF-RHF Final Energy: -1908.88268621301449
    Total Energy =                      -1908.8826862130144946
  Basis Set: (6-31G(D) AUX)
    Blend: CC-PVDZ-JKFIT
  Basis Set: 6-31G(D)
    Blend: 6-31G(D)
  Basis Set: (6-31G(D) AUX)
    Blend: CC-PVDZ-JKFIT
  @DF-RHF Final Energy: -1908.88268621090788
    Total Energy =                      -1908.8826862109078775
  Basis Set: 6-31G(D)
    Blend: 6-31G(D)
  Basis Set: (6-31G(D) AUX)
    Blend: CC-PVDZ-JKFIT
    Molecular point group: c1
  Charge       = 0
  Multiplicity = 1
  Basis Set: 6-31G(D)
    Blend: 6-31G(D)
  Basis Set: (6-31G(D) AUX)
    Blend: CC-PVDZ-JKFIT

    Orbital Energies [Eh]
    ---------------------

    Doubly Occupied:

       1A   -104.847526     2A   -104.843103     3A   -104.841159
       4A    -20.637780     5A    -20.613606     6A    -20.577752
       7A    -11.405525     8A    -11.332825     9A    -11.330788
      10A    -11.329358    11A    -11.325631    12A    -11.323743
      13A    -11.279406    14A    -11.266806    15A    -10.580561
      16A    -10.576330    17A    -10.574424    18A     -8.050004
      19A     -8.046572    20A     -8.046511    21A     -8.045775
      22A     -8.043871    23A     -8.042246    24A     -8.042245
      25A     -8.040346    26A     -8.040314    27A     -1.501971
      28A     -1.447204    29A     -1.392479    30A     -1.239787
      31A     -1.183474    32A     -1.149601    33A     -1.110556
      34A     -1.055038    35A     -1.019464    36A     -0.980816
      37A     -0.880150    38A     -0.864780    39A     -0.812711
      40A     -0.746832    41A     -0.740671    42A     -0.724586
      43A     -0.704307    44A     -0.690734    45A     -0.670413
      46A     -0.650778    47A     -0.639342    48A     -0.617214
      49A     -0.604310    50A     -0.589205    51A     -0.572105
      52A     -0.561344    53A     -0.543175    54A     -0.526770
      55A     -0.504233    56A     -0.500840    57A     -0.496220
      58A     -0.481717    59A     -0.472270    60A     -0.460550
      61A     -0.455558    62A     -0.453049    63A     -0.361246
      64A     -0.343159

  @DF-RHF Final Energy: -1908.88268631079382

   => Energetics <=

    Nuclear Repulsion Energy =           1186.3884158048902009
    One-Electron Energy =               -4990.8764669644997412
    Two-Electron Energy =                1895.6053648488154977
    Total Energy =                      -1908.8826863107938152

  Dipole Moment: [D]
     X:    -3.0026      Y:     0.1361      Z:    -1.6246     Total:     3.4166

    Molecular point group: c1

    Geometry (in Angstrom), charge = 0, multiplicity = 1:

       Center              X                  Y                   Z               Mass
    ------------   -----------------  -----------------  -----------------  -----------------
         C            0.396650384427    -0.795507199289    -1.231870800271    12.000000000000
         O           -1.438463790903    -1.643428447857     0.039524318233    15.994914619560
         C           -0.356403261108    -0.833271162769    -0.065869920354    12.000000000000
         C            0.048086836055    -0.082625645534     1.022676947815    12.000000000000
         H           -0.537540433747    -0.119581508509     1.918714403778     1.007825032070
         O           -3.075217743102    -0.188230971266     1.732930694947    15.994914619560
         C            1.183774135614     0.704957708685     0.953609439542    12.000000000000
         C            1.926779326584     0.745711995791    -0.216980459991    12.000000000000
         C            1.528408800900    -0.008666737268    -1.306511402800    12.000000000000
         H            2.105748076937     0.014786799795    -2.209226666129     1.007825032070
         C           -2.664904311559    -1.172968714947    -0.431828043952    12.000000000000
         H           -3.243460068553    -2.032149502007    -0.741018147019     1.007825032070
         H           -2.552176865113    -0.523212257935    -1.291368102733     1.007825032070
         C           -3.444323341238    -0.433684892593     0.635159113887    12.000000000000
         O           -4.635475188827    -0.084241049281     0.164981922755    15.994914619560
         H           -5.111522049714     0.378747309583     0.848232736218     1.007825032070
         CL           3.355405475317     1.713626843670    -0.366836830771    34.968852682000
         CL          -0.062785275168    -1.748262957397    -2.608162214193    34.968852682000
         CL           1.635628040869     1.620521185508     2.351485543593    34.968852682000

  Basis Set: 6-31G(D)
    Blend: 6-31G(D)
  Basis Set: (6-31G(D) AUX)
    Blend: CC-PVDZ-JKFIT

  -Total Gradient:
     Atom            X                  Y                   Z
    ------   -----------------  -----------------  -----------------
       1        0.000000035527    -0.000000914726     0.000000380148
       2        0.000000382873    -0.000000154006    -0.000000048358
       3       -0.000000629290     0.000000980382    -0.000000149979
       4       -0.000000805275     0.000000435548    -0.000000418427
       5       -0.000000164175     0.000000166243    -0.000000163014
       6       -0.000000237776    -0.000000102882    -0.000000281685
       7        0.000001713322    -0.000002428052     0.000001248809
       8        0.000000630723    -0.000000334354     0.000000265944
       9       -0.000000165109     0.000000600028    -0.000000382893
      10        0.000000042902     0.000000129928    -0.000000253897
      11        0.000000025814    -0.000000052452     0.000000187976
      12       -0.000000056396     0.000000018640    -0.000000030925
      13        0.000000121661    -0.000000040635     0.000000090827
      14        0.000000140218     0.000000036254     0.000000114829
      15        0.000000001391     0.000000099963     0.000000159259
      16       -0.000000059279     0.000000012028    -0.000000028195
      17       -0.000000358228     0.000000541371    -0.000000196806
      18       -0.000000048535     0.000000141645    -0.000000164888
      19       -0.000000570389     0.000000865119    -0.000000328763

  Vibration                       7                   8                   9
  Freq [cm^-1]                 32.9815             44.1490             71.8583
  Irrep                           A                   A                   A
  Reduced mass [u]              8.1855             10.4393             13.1558
  Force const [mDyne/A]         0.0052              0.0120              0.0400

  Vibration                       10                  11                  12
  Freq [cm^-1]                 82.5891             140.2446            182.2336
  Irrep                           A                   A                   A
  Reduced mass [u]              9.9404              5.5149             10.1994
  Force const [mDyne/A]         0.0399              0.0639              0.1996

  Vibration                       13                  14                  15
  Freq [cm^-1]                 214.1482            226.5634            231.6384
  Irrep                           A                   A                   A
  Reduced mass [u]             16.2527              6.3918             10.3680
  Force const [mDyne/A]         0.4391              0.1933              0.3278

  Vibration                       16                  17                  18
  Freq [cm^-1]                 287.2031            350.2531            352.9503
  Irrep                           A                   A                   A
  Reduced mass [u]              5.8843             10.6186             18.9101
  Force const [mDyne/A]         0.2860              0.7675              1.3879

  Vibration                       19                  20                  21
  Freq [cm^-1]                 396.4287            457.0136            500.4157
  Irrep                           A                   A                   A
  Reduced mass [u]             13.7257              7.7280              3.9621
  Force const [mDyne/A]         1.2709              0.9510              0.5846

  Vibration                       22                  23                  24
  Freq [cm^-1]                 536.9225            558.0136            576.7737
  Irrep                           A                   A                   A
  Reduced mass [u]              1.7876              3.8145              5.2876
  Force const [mDyne/A]         0.3036              0.6998              1.0364

  Vibration                       25                  26                  27
  Freq [cm^-1]                 629.3568            699.0285            704.3936
  Irrep                           A                   A                   A
  Reduced mass [u]              6.6656              5.4320              1.6991
  Force const [mDyne/A]         1.5556              1.5639              0.4967

  Vibration                       28                  29                  30
  Freq [cm^-1]                 738.1751            742.5845            791.5495
  Irrep                           A                   A                   A
  Reduced mass [u]              7.4344              6.6656              6.4315
  Force const [mDyne/A]         2.3868              2.1656              2.3742

  Vibration                       31                  32                  33
  Freq [cm^-1]                 818.2817            945.0807           1006.1549
  Irrep                           A                   A                   A
  Reduced mass [u]              4.5587              3.7266              1.8839
  Force const [mDyne/A]         1.7985              1.9611              1.1237

  Vibration                       34                  35                  36
  Freq [cm^-1]                1007.6828           1038.0366           1155.2695
  Irrep                           A                   A                   A
  Reduced mass [u]              3.3268              1.4133              2.5982
  Force const [mDyne/A]         1.9903              0.8973              2.0431

  Vibration                       37                  38                  39
  Freq [cm^-1]                1189.6133           1197.1896           1218.4363
  Irrep                           A                   A                   A
  Reduced mass [u]              5.7356              8.0356              4.0371
  Force const [mDyne/A]         4.7823              6.7857              3.5312

  Vibration                       40                  41                  42
  Freq [cm^-1]                1260.4829           1307.2917           1377.4542
  Irrep                           A                   A                   A
  Reduced mass [u]              2.4225              2.3859              1.4416
  Force const [mDyne/A]         2.2677              2.4024              1.6116

  Vibration                       43                  44                  45
  Freq [cm^-1]                1386.8720           1442.3795           1456.0080
  Irrep                           A                   A                   A
  Reduced mass [u]              1.8183              1.5735              1.6642
  Force const [mDyne/A]         2.0605              1.9288              2.0787

  Vibration                       46                  47                  48
  Freq [cm^-1]                1504.7343           1593.2632           1619.9182
  Irrep                           A                   A                   A
  Reduced mass [u]              6.7383              1.9647              1.1425
  Force const [mDyne/A]         8.9892              2.9385              1.7665

  Vibration                       49                  50                  51
  Freq [cm^-1]                1653.1109           1741.9514           1790.5590
  Irrep                           A                   A                   A
  Reduced mass [u]              2.7438             10.0739              6.5063
  Force const [mDyne/A]         4.4178             18.0102             12.2903

  Vibration                       52                  53                  54
  Freq [cm^-1]                2053.7042           3256.5869           3317.1077
  Irrep                           A                   A                   A
  Reduced mass [u]             10.6138              1.0627              1.1041
  Force const [mDyne/A]        26.3752              6.6402              7.1577

  Vibration                       55                  56                  57
  Freq [cm^-1]                3421.3632           3439.1621           4050.0249
  Irrep                           A                   A                   A
  Reduced mass [u]              1.0940              1.0941              1.0653
  Force const [mDyne/A]         7.5451              7.6244             10.2955

  ==> Thermochemistry Components <==

  Entropy, S
    Electronic S            0.000 [cal/(mol K)]        0.000 [J/(mol K)]       0.00000000 [mEh/K] (multiplicity = 1)
    Translational S        42.496 [cal/(mol K)]      177.803 [J/(mol K)]       0.06772143 [mEh/K] (mol. weight = 253.9304 [u], P = 101325.00 [Pa])
    Rotational S           33.256 [cal/(mol K)]      139.142 [J/(mol K)]       0.05299638 [mEh/K] (symmetry no. = 1)
    Vibrational S          39.989 [cal/(mol K)]      167.315 [J/(mol K)]       0.06372695 [mEh/K]
  Total S                 115.741 [cal/(mol K)]      484.260 [J/(mol K)]       0.18444476 [mEh/K]
  Correction S              0.000 [cal/(mol K)]        0.000 [J/(mol K)]       0.00000000 [mEh/K]

  Constant volume heat capacity, Cv
    Electronic Cv           0.000 [cal/(mol K)]        0.000 [J/(mol K)]       0.00000000 [mEh/K]
    Translational Cv        2.981 [cal/(mol K)]       12.472 [J/(mol K)]       0.00475022 [mEh/K]
    Rotational Cv           2.981 [cal/(mol K)]       12.472 [J/(mol K)]       0.00475022 [mEh/K]
    Vibrational Cv         38.152 [cal/(mol K)]      159.629 [J/(mol K)]       0.06079962 [mEh/K]
  Total Cv                 44.114 [cal/(mol K)]      184.573 [J/(mol K)]       0.07030007 [mEh/K]
  Correction Cv             0.000 [cal/(mol K)]        0.000 [J/(mol K)]       0.00000000 [mEh/K]

  Constant pressure heat capacity, Cp
    Electronic Cp           0.000 [cal/(mol K)]        0.000 [J/(mol K)]       0.00000000 [mEh/K]
    Translational Cp        4.968 [cal/(mol K)]       20.786 [J/(mol K)]       0.00791704 [mEh/K]
    Rotational Cp           2.981 [cal/(mol K)]       12.472 [J/(mol K)]       0.00475022 [mEh/K]
    Vibrational Cp         38.152 [cal/(mol K)]      159.629 [J/(mol K)]       0.06079962 [mEh/K]
  Total Cp                 46.101 [cal/(mol K)]      192.887 [J/(mol K)]       0.07346688 [mEh/K]
  Correction Cp             0.000 [cal/(mol K)]        0.000 [J/(mol K)]       0.00000000 [mEh/K]

  ==> Thermochemistry Energy Analysis <==

  Raw electronic energy, E0
  Total E0, Electronic energy at well bottom at 0 [K]                -1908.88268631 [Eh]

  Zero-point energy, ZPE_vib = Sum_i nu_i / 2
    Electronic ZPE          0.000 [kcal/mol]        0.000 [kJ/mol]       0.00000000 [Eh]
    Translational ZPE       0.000 [kcal/mol]        0.000 [kJ/mol]       0.00000000 [Eh]
    Rotational ZPE          0.000 [kcal/mol]        0.000 [kJ/mol]       0.00000000 [Eh]
    Vibrational ZPE        81.193 [kcal/mol]      339.711 [kJ/mol]       0.12938893 [Eh]       28397.584 [cm^-1]
  Correction ZPE           81.193 [kcal/mol]      339.711 [kJ/mol]       0.12938893 [Eh]       28397.584 [cm^-1]
  Total ZPE, Electronic energy at 0 [K]                              -1908.75329738 [Eh]

  Thermal Energy, E (includes ZPE)
    Electronic E            0.000 [kcal/mol]        0.000 [kJ/mol]       0.00000000 [Eh]
    Translational E         0.889 [kcal/mol]        3.718 [kJ/mol]       0.00141628 [Eh]
    Rotational E            0.889 [kcal/mol]        3.718 [kJ/mol]       0.00141628 [Eh]
    Vibrational E          87.223 [kcal/mol]      364.942 [kJ/mol]       0.13899917 [Eh]
  Correction E             89.001 [kcal/mol]      372.379 [kJ/mol]       0.14183173 [Eh]
  Total E, Electronic energy at  298.15 [K]                          -1908.74085458 [Eh]

  Enthalpy, H_trans = E_trans + k_B * T
    Electronic H            0.000 [kcal/mol]        0.000 [kJ/mol]       0.00000000 [Eh]
    Translational H         1.481 [kcal/mol]        6.197 [kJ/mol]       0.00236046 [Eh]
    Rotational H            0.889 [kcal/mol]        3.718 [kJ/mol]       0.00141628 [Eh]
    Vibrational H          87.223 [kcal/mol]      364.942 [kJ/mol]       0.13899917 [Eh]
  Correction H             89.593 [kcal/mol]      374.858 [kJ/mol]       0.14277592 [Eh]
  Total H, Enthalpy at  298.15 [K]                                   -1908.73991039 [Eh]

  Gibbs free energy, G = H - T * S
    Electronic G            0.000 [kcal/mol]        0.000 [kJ/mol]       0.00000000 [Eh]
    Translational G       -11.189 [kcal/mol]      -46.814 [kJ/mol]      -0.01783068 [Eh]
    Rotational G           -9.026 [kcal/mol]      -37.767 [kJ/mol]      -0.01438459 [Eh]
    Vibrational G          75.301 [kcal/mol]      315.057 [kJ/mol]       0.11999898 [Eh]
  Correction G             55.085 [kcal/mol]      230.476 [kJ/mol]       0.08778371 [Eh]
  Total G, Free enthalpy at  298.15 [K]                              -1908.79490260 [Eh]

*** Psi4 exiting successfully. Buy a developer a beer!
