                               Psi4 1.2.1 release

  ==> Input File <==

--------------------------------------------------------------------------
memory 110 Gb

molecule conf3 {
0 1
C          3.73000       -0.46300        0.47100
O          3.08700        1.55700        1.57900
C          3.90600        0.89100        0.73000
C          4.97900        1.54900        0.16000
H          5.11900        2.58900        0.37600
O          1.37400        2.93700        3.21100
C          5.86200        0.88100       -0.67000
C          5.67300       -0.46700       -0.93600
C          4.60500       -1.13300       -0.35900
H          4.46300       -2.17800       -0.55400
C          1.85900        2.01700        1.08900
H          1.29800        1.14900        0.77300
H          1.97800        2.66500        0.23100
C          1.00100        2.75300        2.09900
O         -0.15900        3.18800        1.63700
H         -0.60300        3.65000        2.34300
Cl         6.73800       -1.35900       -1.96900
Cl         2.42300       -1.33800        1.20300
Cl         7.18200        1.76900       -1.35100
}
set globals {
  reference rhf
  g_convergence gau_tight
  basis 6-31G(d)
}
optimize('scf')
print_variables()
--------------------------------------------------------------------------

    Molecular point group: c1
  Charge       = 0
  Multiplicity = 1
  Basis Set: 6-31G(D)
    Blend: 6-31G(D)
  Basis Set: (6-31G(D) AUX)
    Blend: CC-PVDZ-JKFIT
  @DF-RHF Final Energy: -1908.87300420035035
    Total Energy =                      -1908.8730042003503513
    Molecular point group: c1
  Basis Set: 6-31G(D)
    Blend: 6-31G(D)
  Basis Set: (6-31G(D) AUX)
    Blend: CC-PVDZ-JKFIT
  Basis Set: 6-31G(D)
    Blend: 6-31G(D)
  Basis Set: (6-31G(D) AUX)
    Blend: CC-PVDZ-JKFIT
  @DF-RHF Final Energy: -1908.87806027695569
    Total Energy =                      -1908.8780602769556936
  Basis Set: 6-31G(D)
    Blend: 6-31G(D)
  Basis Set: (6-31G(D) AUX)
    Blend: CC-PVDZ-JKFIT
  Basis Set: 6-31G(D)
    Blend: 6-31G(D)
  @DF-RHF Final Energy: -1908.87586535136825
    Total Energy =                      -1908.8758653513682475
  @DF-RHF Final Energy: -1908.87881833100300
    Total Energy =                      -1908.8788183310030035
  @DF-RHF Final Energy: -1908.87900929453235
    Total Energy =                      -1908.8790092945323522
  @DF-RHF Final Energy: -1908.87902622346269
    Total Energy =                      -1908.8790262234626880
  @DF-RHF Final Energy: -1908.87903395983813
    Total Energy =                      -1908.8790339598381252
  @DF-RHF Final Energy: -1908.87903853061493
    Total Energy =                      -1908.8790385306149346
  @DF-RHF Final Energy: -1908.87904003735662
    Total Energy =                      -1908.8790400373566172
  @DF-RHF Final Energy: -1908.87904065726229
    Total Energy =                      -1908.8790406572622942
  @DF-RHF Final Energy: -1908.87904075794131
    Total Energy =                      -1908.8790407579413113
  @DF-RHF Final Energy: -1908.87904077804637
    Total Energy =                      -1908.8790407780463738
  @DF-RHF Final Energy: -1908.87904078351812
    Total Energy =                      -1908.8790407835181213
  Basis Set: (6-31G(D) AUX)
    Blend: CC-PVDZ-JKFIT
  Basis Set: 6-31G(D)
    Blend: 6-31G(D)
  Basis Set: (6-31G(D) AUX)
    Blend: CC-PVDZ-JKFIT
  @DF-RHF Final Energy: -1908.87904078177166
    Total Energy =                      -1908.8790407817716641
  Basis Set: 6-31G(D)
    Blend: 6-31G(D)
  Basis Set: (6-31G(D) AUX)
    Blend: CC-PVDZ-JKFIT
  Charge       = 0
  Multiplicity = 1
  Basis Set: 6-31G(D)
    Blend: 6-31G(D)
  Basis Set: (6-31G(D) AUX)
    Blend: CC-PVDZ-JKFIT

    Orbital Energies [Eh]
    ---------------------

    Doubly Occupied:

       1A   -104.848853     2A   -104.847886     3A   -104.846871
       4A    -20.632487     5A    -20.614547     6A    -20.570799
       7A    -11.401525     8A    -11.337852     9A    -11.337213
      10A    -11.333868    11A    -11.328899    12A    -11.323082
      13A    -11.284108    14A    -11.275940    15A    -10.581892
      16A    -10.581155    17A    -10.580092    18A     -8.051342
      19A     -8.050599    20A     -8.049538    21A     -8.047883
      22A     -8.047813    23A     -8.047066    24A     -8.047043
      25A     -8.046000    26A     -8.045995    27A     -1.496440
      28A     -1.449853    29A     -1.387292    30A     -1.244744
      31A     -1.187156    32A     -1.154799    33A     -1.114755
      34A     -1.057278    35A     -1.023406    36A     -0.983403
      37A     -0.884829    38A     -0.857279    39A     -0.820185
      40A     -0.750234    41A     -0.739950    42A     -0.720160
      43A     -0.706016    44A     -0.687347    45A     -0.674949
      46A     -0.651534    47A     -0.631592    48A     -0.621640
      49A     -0.609403    50A     -0.594586    51A     -0.577430
      52A     -0.563240    53A     -0.556998    54A     -0.529200
      55A     -0.501254    56A     -0.497598    57A     -0.487647
      58A     -0.481629    59A     -0.472293    60A     -0.464661
      61A     -0.460462    62A     -0.457626    63A     -0.367274
      64A     -0.346862

  @DF-RHF Final Energy: -1908.87904078320571

   => Energetics <=

    Nuclear Repulsion Energy =           1165.8327135002114119
    One-Electron Energy =               -4949.4768026328629276
    Two-Electron Energy =                1874.7650483494458058
    Total Energy =                      -1908.8790407832057099

  Dipole Moment: [D]
     X:    -2.5448      Y:     0.7022      Z:    -1.5887     Total:     3.0811

    Molecular point group: c1
  Basis Set: 6-31G(D)
    Blend: 6-31G(D)
  Basis Set: (6-31G(D) AUX)
    Blend: CC-PVDZ-JKFIT

  -Total Gradient:
     Atom            X                  Y                   Z
    ------   -----------------  -----------------  -----------------
       1        0.000000106416    -0.000000017295     0.000000336662
       2        0.000000833450    -0.000000903785     0.000000734324
       3       -0.000001878495     0.000001487145    -0.000001488585
       4       -0.000000733279     0.000000024450    -0.000000608231
       5       -0.000000186286     0.000000019658    -0.000000158747
       6       -0.000000279652    -0.000000093083    -0.000000660850
       7        0.000002302076    -0.000000444284     0.000002849298
       8        0.000000851582    -0.000000016329     0.000000670235
       9       -0.000000620118    -0.000000294371    -0.000000295042
      10       -0.000000052640    -0.000000020889    -0.000000121767
      11        0.000000440045     0.000001337757    -0.000001538536
      12        0.000000101881    -0.000000374691     0.000000424497
      13       -0.000000157943    -0.000000410724     0.000000182638
      14        0.000000306906    -0.000000237317     0.000001571328
      15        0.000000155167     0.000000193578    -0.000000265501
      16        0.000000057292    -0.000000204469    -0.000000114235
      17       -0.000000517625     0.000000034572    -0.000000650981
      18        0.000000157992    -0.000000229835    -0.000000027167
      19       -0.000000886907     0.000000150085    -0.000000839275

  **** Optimization is complete! (in 15 steps) ****
    Final optimized geometry and variables:
    Molecular point group: c1

    Geometry (in Angstrom), charge = 0, multiplicity = 1:

    C           -0.219916617788    -1.221600510791     0.237671645473
    O           -1.065208929071     0.696193923991     1.393132574347
    C           -0.200960081850     0.138673278275     0.514594485549
    C            0.756452932523     0.933639842593    -0.087479973455
    H            0.782589921267     1.980291611214     0.146024011554
    O           -2.707209949705     2.024163831380     3.066170009571
    C            1.682934736203     0.393482484954    -0.961771392693
    C            1.654806084279    -0.965017896311    -1.238755316184
    C            0.702740960314    -1.766704002991    -0.632571561586
    H            0.685209609892    -2.818186432750    -0.839904015060
    C           -2.286009351916     1.131008082126     0.868227625106
    H           -2.873331997316     0.304623395192     0.486766512468
    H           -2.137255439898     1.839839080118     0.059786120087
    C           -3.069208388154     1.817552429863     1.961957535179
    O           -4.259443092680     2.181102138402     1.491485558632
    H           -4.740005840805     2.618715764890     2.187856605093
    CL           2.784085054598    -1.705369524744    -2.322717909929
    CL          -1.388384096265    -2.256506788629     0.992790198284
    CL           2.852836201602     1.448587224617    -1.677929658604

*** Psi4 exiting successfully. Buy a developer a beer!
