                               Psi4 1.2.1 release

  ==> Input File <==

--------------------------------------------------------------------------
memory 100 Gb

molecule molecule_1 {
0 1
C          1.24300       -0.55300       -0.65700
O          1.24700        1.78400       -0.14900
C          0.57800        0.61900       -0.32200
C         -0.80200        0.60500       -0.23200
H         -1.31100        1.51600        0.01000
O          1.37400        2.93700        3.21100
C         -1.51600       -0.55900       -0.45500
C         -0.84400       -1.72900       -0.77500
C          0.53600       -1.71800       -0.87700
H          1.05700       -2.61900       -1.13400
C          1.85900        2.01700        1.08900
H          2.72600        2.63500        0.90300
H          2.19700        1.10200        1.55600
C          1.00100        2.75300        2.09900
O         -0.15900        3.18800        1.63700
H         -0.60300        3.65000        2.34300
Cl        -1.67800       -3.21900       -1.06200
Cl         2.97000       -0.56900       -0.82600
Cl        -3.24100       -0.50300       -0.32300
}
set globals {
  reference rhf
  g_convergence gau_tight
  basis 6-31G(d)
}
optimize('scf')
print_variables()

--------------------------------------------------------------------------

    Molecular point group: c1
  Charge       = 0
  Multiplicity = 1
  Basis Set: 6-31G(D)
    Blend: 6-31G(D)
  Basis Set: (6-31G(D) AUX)
    Blend: CC-PVDZ-JKFIT
  @DF-RHF Final Energy: -1908.87995383828184
    Total Energy =                      -1908.8799538382818355
    Molecular point group: c1
  Basis Set: 6-31G(D)
    Blend: 6-31G(D)
  Basis Set: (6-31G(D) AUX)
    Blend: CC-PVDZ-JKFIT
  Basis Set: 6-31G(D)
    Blend: 6-31G(D)
  Basis Set: (6-31G(D) AUX)
    Blend: CC-PVDZ-JKFIT
  @DF-RHF Final Energy: -1908.87995379229756
    Total Energy =                      -1908.8799537922975560
  Basis Set: 6-31G(D)
    Blend: 6-31G(D)
  Basis Set: (6-31G(D) AUX)
    Blend: CC-PVDZ-JKFIT
  Basis Set: 6-31G(D)
    Blend: 6-31G(D)
  @DF-RHF Final Energy: -1908.87994241437832
    Total Energy =                      -1908.8799424143783199
  @DF-RHF Final Energy: -1908.87995646075115
    Total Energy =                      -1908.8799564607511456
  @DF-RHF Final Energy: -1908.87995651238703
    Total Energy =                      -1908.8799565123870252
  @DF-RHF Final Energy: -1908.87995652131303
    Total Energy =                      -1908.8799565213130336
  @DF-RHF Final Energy: -1908.87995652404561
    Total Energy =                      -1908.8799565240456104
  Basis Set: (6-31G(D) AUX)
    Blend: CC-PVDZ-JKFIT
  Basis Set: 6-31G(D)
    Blend: 6-31G(D)
  Basis Set: (6-31G(D) AUX)
    Blend: CC-PVDZ-JKFIT
  @DF-RHF Final Energy: -1908.87995652314225
    Total Energy =                      -1908.8799565231422548
  Basis Set: 6-31G(D)
    Blend: 6-31G(D)
  Basis Set: (6-31G(D) AUX)
    Blend: CC-PVDZ-JKFIT
  Charge       = 0
  Multiplicity = 1
  Basis Set: 6-31G(D)
    Blend: 6-31G(D)
  Basis Set: (6-31G(D) AUX)
    Blend: CC-PVDZ-JKFIT

    Orbital Energies [Eh]
    ---------------------

    Doubly Occupied:

       1A   -104.850319     2A   -104.846822     3A   -104.846549
       4A    -20.639342     5A    -20.616741     6A    -20.571767
       7A    -11.404865     8A    -11.337770     9A    -11.335847
      10A    -11.333420    11A    -11.329341    12A    -11.323561
      13A    -11.283593    14A    -11.272948    15A    -10.583359
      16A    -10.580086    17A    -10.579771    18A     -8.052801
      19A     -8.049529    20A     -8.049354    21A     -8.049296
      22A     -8.049217    23A     -8.046004    24A     -8.045980
      25A     -8.045680    26A     -8.045676    27A     -1.502440
      28A     -1.448547    29A     -1.390905    30A     -1.244174
      31A     -1.187294    32A     -1.154076    33A     -1.114742
      34A     -1.055483    35A     -1.021138    36A     -0.981886
      37A     -0.882603    38A     -0.869761    39A     -0.825344
      40A     -0.751109    41A     -0.740058    42A     -0.720006
      43A     -0.709888    44A     -0.685360    45A     -0.672250
      46A     -0.652354    47A     -0.639856    48A     -0.613258
      49A     -0.609272    50A     -0.593428    51A     -0.575209
      52A     -0.564234    53A     -0.549935    54A     -0.530594
      55A     -0.514752    56A     -0.500672    57A     -0.495761
      58A     -0.485563    59A     -0.474890    60A     -0.460807
      61A     -0.459163    62A     -0.451446    63A     -0.366104
      64A     -0.346792

  @DF-RHF Final Energy: -1908.87995652505015

   => Energetics <=

    Nuclear Repulsion Energy =           1187.2788510549717103
    One-Electron Energy =               -4992.2960313741541540
    Two-Electron Energy =                1896.1372237941322965
    Total Energy =                      -1908.8799565250501473

  Dipole Moment: [D]
     X:     0.1373      Y:     0.8204      Z:     0.1417     Total:     0.8437

    Molecular point group: c1
  Basis Set: 6-31G(D)
    Blend: 6-31G(D)
  Basis Set: (6-31G(D) AUX)
    Blend: CC-PVDZ-JKFIT

  -Total Gradient:
     Atom            X                  Y                   Z
    ------   -----------------  -----------------  -----------------
       1        0.000000235548     0.000001296592     0.000000333596
       2       -0.000000090140    -0.000000575934     0.000001726379
       3        0.000001086901    -0.000001131609    -0.000004252210
       4       -0.000001731064    -0.000002095096    -0.000001344380
       5       -0.000000240825     0.000000672336     0.000000228599
       6        0.000000169612     0.000000858174     0.000001565879
       7        0.000000287993    -0.000000053337     0.000003252000
       8        0.000000552686    -0.000000104570    -0.000002443429
       9       -0.000001100924     0.000000167887     0.000000691725
      10        0.000000500549    -0.000000530415     0.000000155370
      11        0.000000711621     0.000001254270    -0.000001604898
      12        0.000000290269    -0.000000036566     0.000000679219
      13        0.000000116519    -0.000000241847     0.000000364768
      14        0.000001425663    -0.000001723676    -0.000000232522
      15       -0.000000833219     0.000001391625     0.000000288494
      16       -0.000000710943     0.000000348814     0.000000111664
      17        0.000000323307     0.000000518661     0.000000482536
      18       -0.000000513825    -0.000000160195     0.000000406425
      19       -0.000000479794     0.000000144882    -0.000000409154

  **** Optimization is complete! (in 9 steps) ****
    Final optimized geometry and variables:
    Molecular point group: c1

    Geometry (in Angstrom), charge = 0, multiplicity = 1:

    C            1.243384873651    -0.553327042251    -0.656822911851
    O            1.246781758555     1.784310747571    -0.148627178379
    C            0.577645351133     0.619210161727    -0.322205407311
    C           -0.801771232164     0.605460556206    -0.231643198010
    H           -1.311145021654     1.515926452256     0.010187939104
    O            1.373930742304     2.936778574616     3.210659736837
    C           -1.515549413650    -0.558856391206    -0.455032487882
    C           -0.844238712188    -1.729162790057    -0.774650703247
    C            0.536163016532    -1.718098713638    -0.876601108753
    H            1.056651670815    -2.618891866566    -1.134461325835
    C            1.858960536947     2.017172498748     1.088859728105
    H            2.726039462849     2.635300003023     0.902858621287
    H            2.197054903682     1.102349504016     1.555888785795
    C            1.001154442913     2.753348082595     2.099261950920
    O           -0.158755063523     3.187841927737     1.637011993567
    H           -0.602582810620     3.649642431175     2.343035899296
    CL          -1.678152192567    -3.219187924273    -1.062136931510
    CL           2.970172275707    -0.569093931528    -0.825544467258
    CL          -3.240772045718    -0.503112527800    -0.323460442306

*** Psi4 exiting successfully. Buy a developer a beer!
