                               Psi4 1.2.1 release

  ==> Input File <==

--------------------------------------------------------------------------
memory 20 Gb

molecule conf10 {
0 1
C          1.24300       -0.55300       -0.65700
O          1.24700        1.78400       -0.14900
C          0.57800        0.61900       -0.32200
C         -0.80200        0.60500       -0.23200
H         -1.31100        1.51600        0.01000
O          3.84000        1.01600        0.28000
C         -1.51600       -0.55900       -0.45500
C         -0.84400       -1.72900       -0.77500
C          0.53600       -1.71800       -0.87700
H          1.05700       -2.61900       -1.13400
C          1.85900        2.01700        1.08900
H          1.28700        1.47900        1.83200
H          1.85100        3.06500        1.35800
C          3.29100        1.53000        1.19700
O          3.87000        1.75000        2.36500
H          4.76500        1.42600        2.31500
Cl        -1.67800       -3.21900       -1.06200
Cl         2.97000       -0.56900       -0.82600
Cl        -3.24100       -0.50300       -0.32300
}
set globals {
  reference rhf
  g_convergence gau_tight
  basis 6-31G(d)
}
optimize('scf')
--------------------------------------------------------------------------

    Molecular point group: c1
  Charge       = 0
  Multiplicity = 1
  Basis Set: 6-31G(D)
    Blend: 6-31G(D)
  Basis Set: (6-31G(D) AUX)
    Blend: CC-PVDZ-JKFIT
  @DF-RHF Final Energy: -1908.80001211792819
    Total Energy =                      -1908.8000121179281905
    Molecular point group: c1
  Basis Set: 6-31G(D)
    Blend: 6-31G(D)
  Basis Set: (6-31G(D) AUX)
    Blend: CC-PVDZ-JKFIT
  Basis Set: 6-31G(D)
    Blend: 6-31G(D)
  Basis Set: (6-31G(D) AUX)
    Blend: CC-PVDZ-JKFIT
  @DF-RHF Final Energy: -1908.84256610361240
    Total Energy =                      -1908.8425661036123984
  Basis Set: 6-31G(D)
    Blend: 6-31G(D)
  Basis Set: (6-31G(D) AUX)
    Blend: CC-PVDZ-JKFIT
  Basis Set: 6-31G(D)
    Blend: 6-31G(D)
  @DF-RHF Final Energy: -1908.85837840557156
    Total Energy =                      -1908.8583784055715569
  @DF-RHF Final Energy: -1908.86721032647938
    Total Energy =                      -1908.8672103264793805
  @DF-RHF Final Energy: -1908.87158306016295
    Total Energy =                      -1908.8715830601629477
  @DF-RHF Final Energy: -1908.87350292507290
    Total Energy =                      -1908.8735029250728985
  @DF-RHF Final Energy: -1908.87500771779150
    Total Energy =                      -1908.8750077177915045
  @DF-RHF Final Energy: -1908.87554802205227
    Total Energy =                      -1908.8755480220522713
  @DF-RHF Final Energy: -1908.87589178180747
    Total Energy =                      -1908.8758917818074679
  @DF-RHF Final Energy: -1908.87623072094948
    Total Energy =                      -1908.8762307209494793
  @DF-RHF Final Energy: -1908.87662815464864
    Total Energy =                      -1908.8766281546486425
  @DF-RHF Final Energy: -1908.87666893486085
    Total Energy =                      -1908.8766689348608452
  @DF-RHF Final Energy: -1908.87734005714947
    Total Energy =                      -1908.8773400571494676
  @DF-RHF Final Energy: -1908.87654474169904
    Total Energy =                      -1908.8765447416990355
  @DF-RHF Final Energy: -1908.87750011911203
    Total Energy =                      -1908.8775001191120282
  @DF-RHF Final Energy: -1908.87777758931452
    Total Energy =                      -1908.8777775893145190
  @DF-RHF Final Energy: -1908.87798597880033
    Total Energy =                      -1908.8779859788003250
  @DF-RHF Final Energy: -1908.87829064797097
    Total Energy =                      -1908.8782906479709709
  @DF-RHF Final Energy: -1908.87797890061665
    Total Energy =                      -1908.8779789006166538
  @DF-RHF Final Energy: -1908.87891877615039
    Total Energy =                      -1908.8789187761503854
  @DF-RHF Final Energy: -1908.87914884604152
    Total Energy =                      -1908.8791488460415167
  @DF-RHF Final Energy: -1908.87920641190158
    Total Energy =                      -1908.8792064119015777
  @DF-RHF Final Energy: -1908.87922046458334
    Total Energy =                      -1908.8792204645833408
  @DF-RHF Final Energy: -1908.87922405476706
    Total Energy =                      -1908.8792240547670644
  @DF-RHF Final Energy: -1908.87922535459870
    Total Energy =                      -1908.8792253545987023
  @DF-RHF Final Energy: -1908.87922632566733
    Total Energy =                      -1908.8792263256673323
  @DF-RHF Final Energy: -1908.87922771203694
    Total Energy =                      -1908.8792277120369363
  @DF-RHF Final Energy: -1908.87922944585375
    Total Energy =                      -1908.8792294458537526
  @DF-RHF Final Energy: -1908.87923049412188
    Total Energy =                      -1908.8792304941218845
  @DF-RHF Final Energy: -1908.87923059995910
    Total Energy =                      -1908.8792305999591008
  @DF-RHF Final Energy: -1908.87923064319511
    Total Energy =                      -1908.8792306431951147
  @DF-RHF Final Energy: -1908.87923068984583
    Total Energy =                      -1908.8792306898458264
  @DF-RHF Final Energy: -1908.87923072121362
    Total Energy =                      -1908.8792307212136166
  @DF-RHF Final Energy: -1908.87923074784749
    Total Energy =                      -1908.8792307478474868
  @DF-RHF Final Energy: -1908.87923075860522
    Total Energy =                      -1908.8792307586052175
  Basis Set: (6-31G(D) AUX)
    Blend: CC-PVDZ-JKFIT
  Basis Set: 6-31G(D)
    Blend: 6-31G(D)
  Basis Set: (6-31G(D) AUX)
    Blend: CC-PVDZ-JKFIT
  @DF-RHF Final Energy: -1908.87923075901062
    Total Energy =                      -1908.8792307590106248
  Basis Set: 6-31G(D)
    Blend: 6-31G(D)
  Basis Set: (6-31G(D) AUX)
    Blend: CC-PVDZ-JKFIT
  Charge       = 0
  Multiplicity = 1
  Basis Set: 6-31G(D)
    Blend: 6-31G(D)
  Basis Set: (6-31G(D) AUX)
    Blend: CC-PVDZ-JKFIT

    Orbital Energies [Eh]
    ---------------------

    Doubly Occupied:

       1A   -104.847526     2A   -104.842766     3A   -104.836526
       4A    -20.636641     5A    -20.629240     6A    -20.575083
       7A    -11.406428     8A    -11.346938     9A    -11.336648
      10A    -11.331485    11A    -11.325568    12A    -11.321016
      13A    -11.280793    14A    -11.274279    15A    -10.580818
      16A    -10.575922    17A    -10.569546    18A     -8.050254
      19A     -8.046741    20A     -8.046720    21A     -8.045373
      22A     -8.041862    23A     -8.041835    24A     -8.039028
      25A     -8.035480    26A     -8.035431    27A     -1.501425
      28A     -1.465222    29A     -1.392073    30A     -1.241591
      31A     -1.182370    32A     -1.151552    33A     -1.109101
      34A     -1.063091    35A     -1.027355    36A     -0.980744
      37A     -0.894503    38A     -0.846415    39A     -0.826175
      40A     -0.756644    41A     -0.740547    42A     -0.722397
      43A     -0.715127    44A     -0.697481    45A     -0.671308
      46A     -0.647822    47A     -0.646505    48A     -0.615764
      49A     -0.603743    50A     -0.595966    51A     -0.577335
      52A     -0.566798    53A     -0.546935    54A     -0.529990
      55A     -0.510568    56A     -0.501178    57A     -0.495254
      58A     -0.483534    59A     -0.470312    60A     -0.462795
      61A     -0.456382    62A     -0.448731    63A     -0.363873
      64A     -0.333268

  @DF-RHF Final Energy: -1908.87923075997787

   => Energetics <=

    Nuclear Repulsion Energy =           1163.1433424427791579
    One-Electron Energy =               -4944.1615037855553965
    Two-Electron Energy =                1872.1389305827983662
    Total Energy =                      -1908.8792307599778724

  Dipole Moment: [D]
     X:    -0.0763      Y:     2.2948      Z:     2.4322     Total:     3.3448

    Molecular point group: c1
  Basis Set: 6-31G(D)
    Blend: 6-31G(D)
  Basis Set: (6-31G(D) AUX)
    Blend: CC-PVDZ-JKFIT

  -Total Gradient:
     Atom            X                  Y                   Z
    ------   -----------------  -----------------  -----------------
       1        0.000002844988    -0.000001440101    -0.000000714250
       2        0.000000209559    -0.000001181314    -0.000000884503
       3       -0.000001807579     0.000001588439    -0.000001565888
       4        0.000001018539    -0.000000980018     0.000000418373
       5       -0.000000609024     0.000000157822     0.000000601906
       6       -0.000001625679     0.000001714267     0.000001011080
       7       -0.000002671764     0.000001397910     0.000000319954
       8        0.000002424588     0.000001397409    -0.000001790511
       9       -0.000001633001    -0.000000288450     0.000001751004
      10        0.000000776094    -0.000000370819    -0.000000446757
      11       -0.000000376971     0.000000157465     0.000001450109
      12        0.000000584509     0.000000573067    -0.000000910841
      13        0.000000336134    -0.000000400224     0.000000123006
      14        0.000001733826    -0.000004069822    -0.000002350683
      15       -0.000000032369     0.000002170482     0.000001284742
      16       -0.000000146538    -0.000000051985     0.000000073156
      17       -0.000000577366    -0.000000548929     0.000000488359
      18       -0.000000736049     0.000000578398     0.000000759536
      19        0.000000288171    -0.000000403594     0.000000382281

  **** Optimization is complete! (in 37 steps) ****
    Final optimized geometry and variables:
    Molecular point group: c1

    Geometry (in Angstrom), charge = 0, multiplicity = 1:

    C            0.628820198519    -0.843203156885    -0.913992629829
    O            1.643694725914     0.617171083613     0.597884696229
    C            0.508114458456     0.110915291267     0.100254600365
    C           -0.757270438360     0.470910412826     0.524184630055
    H           -0.894365916239     1.197573330088     1.298198794245
    O            4.006163427778     1.538070069143     1.492990755080
    C           -1.888476812419    -0.102444588959    -0.044634234591
    C           -1.763177333836    -1.043138711388    -1.044844933989
    C           -0.492280971042    -1.406819398322    -1.472831975493
    H           -0.386152381127    -2.137477035360    -2.249997037638
    C            1.597629911095     1.569803884410     1.608036023636
    H            1.112138470434     1.186951390164     2.499542654698
    H            1.071322132583     2.464607342012     1.292773128605
    C            3.012986272935     1.957650709318     1.970788377492
    O            2.979515481710     2.870300721308     2.938130587638
    H            3.874040682745     3.109932768810     3.161583960173
    CL          -3.133652111779    -1.793479236160    -1.792921926502
    CL           2.193439950440    -1.323614820946    -1.475495522786
    CL          -3.435012910170     0.405699740884     0.545677029160

*** Psi4 exiting successfully. Buy a developer a beer!
