                               Psi4 1.1a2.dev170

  ==> Input File <==

--------------------------------------------------------------------------
memory 20 Gb

molecule conf8 {
0 1
C          1.24300       -0.55300       -0.65700
O          1.24700        1.78400       -0.14900
C          0.57800        0.61900       -0.32200
C         -0.80200        0.60500       -0.23200
H         -1.31100        1.51600        0.01000
O          0.31300        2.16900        2.87000
C         -1.51600       -0.55900       -0.45500
C         -0.84400       -1.72900       -0.77500
C          0.53600       -1.71800       -0.87700
H          1.05700       -2.61900       -1.13400
C          1.85900        2.01700        1.08900
H          2.72600        2.63500        0.90300
H          2.19700        1.10200        1.55600
C          1.00100        2.75300        2.09900
O          1.10600        4.07100        2.06700
H          0.54500        4.42700        2.75100
Cl        -1.67800       -3.21900       -1.06200
Cl         2.97000       -0.56900       -0.82600
Cl        -3.24100       -0.50300       -0.32300
}
set globals {
  reference rhf
  opt_type ts
  g_convergence gau_tight
  basis 6-31G(d)
}
optimize('scf')
--------------------------------------------------------------------------

    Molecular point group: c1
  Charge       = 0
  Multiplicity = 1
  Basis Set: file /usr/local/software/miniconda2/envs/p4env/share/psi4/basis/6-31g_d_.gbs
  Basis Set: file /usr/local/software/miniconda2/envs/p4env/share/psi4/basis/cc-pvdz-jkfit.gbs
  @DF-RHF Final Energy: -1908.87356280533095
    Total Energy =                      -1908.8735628053309483
    Molecular point group: c1
  Basis Set: file /usr/local/software/miniconda2/envs/p4env/share/psi4/basis/6-31g_d_.gbs
  Basis Set: file /usr/local/software/miniconda2/envs/p4env/share/psi4/basis/cc-pvdz-jkfit.gbs
  Basis Set: file /usr/local/software/miniconda2/envs/p4env/share/psi4/basis/6-31g_d_.gbs
  Basis Set: file /usr/local/software/miniconda2/envs/p4env/share/psi4/basis/cc-pvdz-jkfit.gbs
  @DF-RHF Final Energy: -1908.87542972779511
    Total Energy =                      -1908.8754297277951082
  Basis Set: file /usr/local/software/miniconda2/envs/p4env/share/psi4/basis/6-31g_d_.gbs
  Basis Set: file /usr/local/software/miniconda2/envs/p4env/share/psi4/basis/cc-pvdz-jkfit.gbs
  Basis Set: file /usr/local/software/miniconda2/envs/p4env/share/psi4/basis/6-31g_d_.gbs
  Basis Set: file /usr/local/software/miniconda2/envs/p4env/share/psi4/basis/cc-pvdz-jkfit.gbs
  @DF-RHF Final Energy: -1908.87535112198975
    Total Energy =                      -1908.8753511219897518
  Basis Set: file /usr/local/software/miniconda2/envs/p4env/share/psi4/basis/6-31g_d_.gbs
  Basis Set: file /usr/local/software/miniconda2/envs/p4env/share/psi4/basis/cc-pvdz-jkfit.gbs
  Basis Set: file /usr/local/software/miniconda2/envs/p4env/share/psi4/basis/6-31g_d_.gbs
  Basis Set: file /usr/local/software/miniconda2/envs/p4env/share/psi4/basis/cc-pvdz-jkfit.gbs
  @DF-RHF Final Energy: -1908.87589745285459
    Total Energy =                      -1908.8758974528545878
  Basis Set: file /usr/local/software/miniconda2/envs/p4env/share/psi4/basis/6-31g_d_.gbs
  Basis Set: file /usr/local/software/miniconda2/envs/p4env/share/psi4/basis/cc-pvdz-jkfit.gbs
  @DF-RHF Final Energy: -1908.87602710524698
    Total Energy =                      -1908.8760271052469761
  @DF-RHF Final Energy: -1908.87599151776044
    Total Energy =                      -1908.8759915177604398
  @DF-RHF Final Energy: -1908.87597927252659
    Total Energy =                      -1908.8759792725265925
  @DF-RHF Final Energy: -1908.87599408622123
    Total Energy =                      -1908.8759940862212261
  @DF-RHF Final Energy: -1908.87599844099145
    Total Energy =                      -1908.8759984409914523
  @DF-RHF Final Energy: -1908.87600279677667
    Total Energy =                      -1908.8760027967766746
  @DF-RHF Final Energy: -1908.87600041811811
    Total Energy =                      -1908.8760004181181102
  @DF-RHF Final Energy: -1908.87600042280792
    Total Energy =                      -1908.8760004228079197
  @DF-RHF Final Energy: -1908.87600029019586
    Total Energy =                      -1908.8760002901958615
  @DF-RHF Final Energy: -1908.87600054745144
    Total Energy =                      -1908.8760005474514401
  Basis Set: file /usr/local/software/miniconda2/envs/p4env/share/psi4/basis/6-31g_d_.gbs
  Basis Set: file /usr/local/software/miniconda2/envs/p4env/share/psi4/basis/cc-pvdz-jkfit.gbs
  @DF-RHF Final Energy: -1908.87600059270108
    Total Energy =                      -1908.8760005927010752
  Basis Set: file /usr/local/software/miniconda2/envs/p4env/share/psi4/basis/6-31g_d_.gbs
  Basis Set: file /usr/local/software/miniconda2/envs/p4env/share/psi4/basis/cc-pvdz-jkfit.gbs
  Basis Set: file /usr/local/software/miniconda2/envs/p4env/share/psi4/basis/6-31g_d_.gbs
  Basis Set: file /usr/local/software/miniconda2/envs/p4env/share/psi4/basis/cc-pvdz-jkfit.gbs
  @DF-RHF Final Energy: -1908.87600060969794
    Total Energy =                      -1908.8760006096979396
  Basis Set: file /usr/local/software/miniconda2/envs/p4env/share/psi4/basis/6-31g_d_.gbs
  Basis Set: file /usr/local/software/miniconda2/envs/p4env/share/psi4/basis/cc-pvdz-jkfit.gbs
  Basis Set: file /usr/local/software/miniconda2/envs/p4env/share/psi4/basis/6-31g_d_.gbs
  Basis Set: file /usr/local/software/miniconda2/envs/p4env/share/psi4/basis/cc-pvdz-jkfit.gbs
  @DF-RHF Final Energy: -1908.87600062216188
    Total Energy =                      -1908.8760006221618823
  Basis Set: file /usr/local/software/miniconda2/envs/p4env/share/psi4/basis/6-31g_d_.gbs
  Basis Set: file /usr/local/software/miniconda2/envs/p4env/share/psi4/basis/cc-pvdz-jkfit.gbs
  Charge       = 0
  Multiplicity = 1
  Basis Set: file /usr/local/software/miniconda2/envs/p4env/share/psi4/basis/6-31g_d_.gbs
  Basis Set: file /usr/local/software/miniconda2/envs/p4env/share/psi4/basis/cc-pvdz-jkfit.gbs

    Orbital Energies (a.u.)
    -----------------------

    Doubly Occupied:

       1A   -104.848975     2A   -104.844714     3A   -104.844443
       4A    -20.634936     5A    -20.618694     6A    -20.575839
       7A    -11.402417     8A    -11.336431     9A    -11.334202
      10A    -11.331654    11A    -11.327610    12A    -11.320819
      13A    -11.281950    14A    -11.273461    15A    -10.582008
      16A    -10.577940    17A    -10.577715    18A     -8.051454
      19A     -8.048008    20A     -8.047949    21A     -8.047387
      22A     -8.047163    23A     -8.043850    24A     -8.043845
      25A     -8.043623    26A     -8.043602    27A     -1.499493
      28A     -1.446709    29A     -1.390146    30A     -1.242512
      31A     -1.185708    32A     -1.152250    33A     -1.113071
      34A     -1.054157    35A     -1.020255    36A     -0.980311
      37A     -0.881559    38A     -0.864009    39A     -0.822708
      40A     -0.748208    41A     -0.739973    42A     -0.722659
      43A     -0.701467    44A     -0.686356    45A     -0.674837
      46A     -0.648813    47A     -0.635284    48A     -0.614008
      49A     -0.607580    50A     -0.591933    51A     -0.573687
      52A     -0.566391    53A     -0.548546    54A     -0.528800
      55A     -0.512968    56A     -0.499287    57A     -0.498588
      58A     -0.483934    59A     -0.473477    60A     -0.459142
      61A     -0.457762    62A     -0.449625    63A     -0.364487
      64A     -0.344956

  @DF-RHF Final Energy: -1908.87600062825254

   => Energetics <=

    Nuclear Repulsion Energy =           1185.5427284511038124
    One-Electron Energy =               -4989.0047613586393709
    Two-Electron Energy =                1894.5860322792830175
    DFT Exchange-Correlation Energy =       0.0000000000000000
    Empirical Dispersion Energy =           0.0000000000000000
    PCM Polarization Energy =               0.0000000000000000
    EFP Energy =                            0.0000000000000000
    Total Energy =                      -1908.8760006282525410
    Molecular point group: c1
  Basis Set: file /usr/local/software/miniconda2/envs/p4env/share/psi4/basis/6-31g_d_.gbs
  Basis Set: file /usr/local/software/miniconda2/envs/p4env/share/psi4/basis/cc-pvdz-jkfit.gbs

  -Total Gradient:
     Atom            X                  Y                   Z
    ------   -----------------  -----------------  -----------------
       1       -0.000000145801     0.000001467744    -0.000000749613
       2        0.000000570914     0.000000869764     0.000000016727
       3        0.000001299478    -0.000001725411     0.000002549880
       4        0.000000320432     0.000000761733     0.000000443111
       5        0.000000186316    -0.000000198184    -0.000000078904
       6       -0.000000189608     0.000001428604    -0.000000299763
       7       -0.000000384432     0.000002000237    -0.000002022792
       8        0.000000509150    -0.000001125244     0.000001385219
       9       -0.000000563725    -0.000000559778    -0.000000446218
      10        0.000000201093    -0.000000028033     0.000000005243
      11       -0.000002083575    -0.000001339789    -0.000001615599
      12       -0.000000049470     0.000000027517    -0.000000876890
      13        0.000000116710     0.000000201772     0.000000039523
      14        0.000001004191    -0.000001118234     0.000000435904
      15       -0.000000324141    -0.000000384229     0.000001140060
      16       -0.000000478906     0.000000170222    -0.000000245494
      17       -0.000000128538    -0.000000034086    -0.000000171803
      18        0.000000074429    -0.000000037814     0.000000079794
      19        0.000000065730    -0.000000376720     0.000000411596

  **** Optimization is complete! (in 18 steps) ****
    Final optimized geometry and variables:
    Molecular point group: c1

    Geometry (in Angstrom), charge = 0, multiplicity = 1:

    C            1.224680092236    -0.551914602636    -0.721593459657
    O            1.274808226208     1.743915686865    -0.060956905884
    C            0.584651490399     0.597678780140    -0.277648071288
    C           -0.787274533482     0.582497478757    -0.114536874038
    H           -1.283205753805     1.471164408355     0.221796817365
    O            0.263936309764     2.175335771007     2.910190624366
    C           -1.521500917892    -0.559381938820    -0.383336402389
    C           -0.875441271367    -1.705857045675    -0.819874448081
    C            0.498660996942    -1.694777449099    -0.987930016515
    H            0.998615196383    -2.578204670406    -1.332029984472
    C            1.910539867529     1.902819073684     1.191409130665
    H            2.818068478217     2.457339301595     1.013173874197
    H            2.135607684911     0.949217189067     1.644166116171
    C            0.988147609399     2.676382313974     2.115132791600
    O            1.056731639452     3.983272933059     1.911305869402
    H            0.432427558096     4.415845340202     2.486817510670
    CL          -1.734514587046    -3.167326346818    -1.172673833851
    CL           2.942798107675    -0.562724331639    -0.961007222578
    CL          -3.236528860592    -0.506218468587    -0.160628874344

*** Psi4 exiting successfully. Buy a developer a beer!
