                               Psi4 1.1a2.dev170

  ==> Input File <==

--------------------------------------------------------------------------
memory 20 Gb

molecule conf5 {
0 1
    C           -0.330632550915    -1.209334298667     0.217885496216
    O           -1.056636441306     0.760546463220     1.364365909300
    C           -0.219717454663     0.145944494074     0.497052623826
    C            0.798934607715     0.872499013931    -0.090612258447
    H            0.895068659389     1.914813772906     0.144055554989
    O           -4.157149618270     2.343675765265     1.687937872479
    C            1.697088564915     0.269200160970    -0.953125241988
    C            1.577699429214    -1.083945032066    -1.232254319456
    C            0.563513453265    -1.817328024083    -0.640410323060
    H            0.474870507029    -2.864759802349    -0.850020518413
    C           -2.228642866091     1.301700563945     0.816406639718
    H           -2.870510165823     0.531887749836     0.410872305539
    H           -1.994998653388     2.005628268881     0.023445465731
    C           -3.020151778058     2.051123697410     1.863382884947
    O           -2.332849003678     2.382643679741     2.937857165284
    H           -2.912376007900     2.862683121754     3.522427162648
    CL           2.667276899896    -1.900932169333    -2.301435107824
    CL          -1.579931361629    -2.158884720943     0.955001967131
    CL           2.947924819654     1.240011619047    -1.651327103490
}
set globals {
  reference rhf
  g_convergence gau_tight
  basis 6-31G(d)
}
optimize('scf')
--------------------------------------------------------------------------

    Molecular point group: c1
  Charge       = 0
  Multiplicity = 1
  Basis Set: file /usr/local/software/miniconda2/envs/p4env/share/psi4/basis/6-31g_d_.gbs
  Basis Set: file /usr/local/software/miniconda2/envs/p4env/share/psi4/basis/cc-pvdz-jkfit.gbs
  @DF-RHF Final Energy: -1908.87838742439681
    Total Energy =                      -1908.8783874243968057
    Molecular point group: c1
  Basis Set: file /usr/local/software/miniconda2/envs/p4env/share/psi4/basis/6-31g_d_.gbs
  Basis Set: file /usr/local/software/miniconda2/envs/p4env/share/psi4/basis/cc-pvdz-jkfit.gbs
  Basis Set: file /usr/local/software/miniconda2/envs/p4env/share/psi4/basis/6-31g_d_.gbs
  Basis Set: file /usr/local/software/miniconda2/envs/p4env/share/psi4/basis/cc-pvdz-jkfit.gbs
  @DF-RHF Final Energy: -1908.87838742536405
    Total Energy =                      -1908.8783874253640533
  Basis Set: file /usr/local/software/miniconda2/envs/p4env/share/psi4/basis/6-31g_d_.gbs
  Basis Set: file /usr/local/software/miniconda2/envs/p4env/share/psi4/basis/cc-pvdz-jkfit.gbs
  Basis Set: file /usr/local/software/miniconda2/envs/p4env/share/psi4/basis/6-31g_d_.gbs
  Basis Set: file /usr/local/software/miniconda2/envs/p4env/share/psi4/basis/cc-pvdz-jkfit.gbs
  @DF-RHF Final Energy: -1908.87838737421589
    Total Energy =                      -1908.8783873742158903
  Basis Set: file /usr/local/software/miniconda2/envs/p4env/share/psi4/basis/6-31g_d_.gbs
  Basis Set: file /usr/local/software/miniconda2/envs/p4env/share/psi4/basis/cc-pvdz-jkfit.gbs
  Basis Set: file /usr/local/software/miniconda2/envs/p4env/share/psi4/basis/6-31g_d_.gbs
  Basis Set: file /usr/local/software/miniconda2/envs/p4env/share/psi4/basis/cc-pvdz-jkfit.gbs
  @DF-RHF Final Energy: -1908.87838744640612
    Total Energy =                      -1908.8783874464061228
  Basis Set: file /usr/local/software/miniconda2/envs/p4env/share/psi4/basis/6-31g_d_.gbs
  Basis Set: file /usr/local/software/miniconda2/envs/p4env/share/psi4/basis/cc-pvdz-jkfit.gbs
  Basis Set: file /usr/local/software/miniconda2/envs/p4env/share/psi4/basis/6-31g_d_.gbs
  Basis Set: file /usr/local/software/miniconda2/envs/p4env/share/psi4/basis/cc-pvdz-jkfit.gbs
  @DF-RHF Final Energy: -1908.87838745551517
    Total Energy =                      -1908.8783874555151669
  Basis Set: file /usr/local/software/miniconda2/envs/p4env/share/psi4/basis/6-31g_d_.gbs
  Basis Set: file /usr/local/software/miniconda2/envs/p4env/share/psi4/basis/cc-pvdz-jkfit.gbs
  Charge       = 0
  Multiplicity = 1
  Basis Set: file /usr/local/software/miniconda2/envs/p4env/share/psi4/basis/6-31g_d_.gbs
  Basis Set: file /usr/local/software/miniconda2/envs/p4env/share/psi4/basis/cc-pvdz-jkfit.gbs

    Orbital Energies (a.u.)
    -----------------------

    Doubly Occupied:

       1A   -104.849867     2A   -104.849067     3A   -104.847853
       4A    -20.631828     5A    -20.616471     6A    -20.568046
       7A    -11.403169     8A    -11.339263     9A    -11.338483
      10A    -11.335109    11A    -11.330156    12A    -11.323014
      13A    -11.285261    14A    -11.277520    15A    -10.582903
      16A    -10.582335    17A    -10.581074    18A     -8.052352
      19A     -8.051779    20A     -8.050521    21A     -8.048885
      22A     -8.048826    23A     -8.048245    24A     -8.048222
      25A     -8.046980    26A     -8.046975    27A     -1.498132
      28A     -1.449733    29A     -1.386543    30A     -1.245992
      31A     -1.188346    32A     -1.155950    33A     -1.115868
      34A     -1.056865    35A     -1.022896    36A     -0.981728
      37A     -0.884797    38A     -0.858327    39A     -0.830892
      40A     -0.746367    41A     -0.740943    42A     -0.725101
      43A     -0.708370    44A     -0.684375    45A     -0.675812
      46A     -0.650657    47A     -0.625537    48A     -0.622419
      49A     -0.610489    50A     -0.592131    51A     -0.577588
      52A     -0.567769    53A     -0.559077    54A     -0.530303
      55A     -0.502588    56A     -0.501951    57A     -0.487883
      58A     -0.478615    59A     -0.471539    60A     -0.466474
      61A     -0.460693    62A     -0.458598    63A     -0.368591
      64A     -0.348123

  @DF-RHF Final Energy: -1908.87838745670888

   => Energetics <=

    Nuclear Repulsion Energy =           1167.2741771121131933
    One-Electron Energy =               -4952.2605950276629301
    Two-Electron Energy =                1876.1080304588408580
    DFT Exchange-Correlation Energy =       0.0000000000000000
    Empirical Dispersion Energy =           0.0000000000000000
    PCM Polarization Energy =               0.0000000000000000
    EFP Energy =                            0.0000000000000000
    Total Energy =                      -1908.8783874567088787
    Molecular point group: c1
  Basis Set: file /usr/local/software/miniconda2/envs/p4env/share/psi4/basis/6-31g_d_.gbs
  Basis Set: file /usr/local/software/miniconda2/envs/p4env/share/psi4/basis/cc-pvdz-jkfit.gbs

  -Total Gradient:
     Atom            X                  Y                   Z
    ------   -----------------  -----------------  -----------------
       1        0.000000112377    -0.000000396980    -0.000000504001
       2       -0.000001187164     0.000000696203    -0.000000309705
       3        0.000000733792     0.000000616897     0.000000071199
       4       -0.000000640881    -0.000000136146     0.000000176297
       5        0.000000243631     0.000000045248    -0.000000285807
       6       -0.000005648536    -0.000001340603    -0.000003055209
       7        0.000000143073    -0.000000126452    -0.000000141702
       8        0.000000640090     0.000000582497     0.000000202660
       9       -0.000000836830    -0.000000180483     0.000000156161
      10       -0.000000023819    -0.000000044617     0.000000064522
      11        0.000000578648    -0.000001654254     0.000001759095
      12       -0.000001357439     0.000000168418    -0.000001012151
      13       -0.000000913088    -0.000000083883     0.000000639915
      14        0.000011071459     0.000003312711     0.000004939548
      15       -0.000002319135    -0.000001412062    -0.000002418133
      16       -0.000000233232    -0.000000144907    -0.000000178568
      17       -0.000000082384    -0.000000142435    -0.000000134793
      18       -0.000000188359     0.000000149038     0.000000006350
      19       -0.000000092143     0.000000091812     0.000000024252

  **** Optimization is complete! (in 6 steps) ****
    Final optimized geometry and variables:
    Molecular point group: c1

    Geometry (in Angstrom), charge = 0, multiplicity = 1:

    C           -0.331218164292    -1.210386894393     0.216412654113
    O           -1.058032331004     0.758118949585     1.364761265999
    C           -0.220549262391     0.144563946140     0.497247564158
    C            0.798424511380     0.871879867693    -0.088919131027
    H            0.894349457547     1.913916103852     0.147070251063
    O           -4.158698558865     2.338466789881     1.691982597078
    C            1.697138083591     0.269658441558    -0.951599608140
    C            1.577998471531    -1.083163799078    -1.232404527958
    C            0.563495023951    -1.817308813420    -0.642052690096
    H            0.475040387364    -2.864495022984    -0.852963938482
    C           -2.229715552690     1.300004716103     0.816778653038
    H           -2.872412817341     0.530584860219     0.411900576683
    H           -1.995536573844     2.003368012041     0.023440083223
    C           -3.019933982580     2.050721778456     1.863795426208
    O           -2.329115170673     2.389750224168     2.933717602588
    H           -2.907824350756     2.870294404866     3.518679678057
    CL           2.668274255312    -1.898818359331    -2.301891882541
    CL          -1.580914347912    -2.160877140089     0.951632992075
    CL           2.948346075536     1.241369557153    -1.647882457144

*** Psi4 exiting successfully. Buy a developer a beer!
