                               Psi4 1.2.1 release

  ==> Input File <==

--------------------------------------------------------------------------
memory 110 Gb

molecule conf2 {
0 1
C          4.89200        2.42600        0.27000
O          3.08700        1.55700        1.57900
C          4.16800        2.36400        1.45500
C          4.60400        3.09300        2.54600
H          4.05200        3.02900        3.46200
O          1.37400        2.93700        3.21100
C          5.73500        3.88500        2.46400
C          6.44500        3.95400        1.27400
C          6.01800        3.21800        0.18200
H          6.57100        3.26000       -0.73500
C          1.85900        2.01700        1.08900
H          1.29800        1.14900        0.77300
H          1.97800        2.66500        0.23100
C          1.00100        2.75300        2.09900
O         -0.15900        3.18800        1.63700
H         -0.60300        3.65000        2.34300
Cl         7.86500        4.92900        1.10500
Cl         4.40500        1.49200       -1.10900
Cl         6.22200        4.77100        3.86900
}
set globals {
  reference rhf
  g_convergence gau_tight
  basis 6-31G(d)
}
optimize('scf')
print_variables()
--------------------------------------------------------------------------

    Molecular point group: c1
  Charge       = 0
  Multiplicity = 1
  Basis Set: 6-31G(D)
    Blend: 6-31G(D)
  Basis Set: (6-31G(D) AUX)
    Blend: CC-PVDZ-JKFIT
  @DF-RHF Final Energy: -1908.87981370322564
    Total Energy =                      -1908.8798137032256363
    Molecular point group: c1
  Basis Set: 6-31G(D)
    Blend: 6-31G(D)
  Basis Set: (6-31G(D) AUX)
    Blend: CC-PVDZ-JKFIT
  Basis Set: 6-31G(D)
    Blend: 6-31G(D)
  Basis Set: (6-31G(D) AUX)
    Blend: CC-PVDZ-JKFIT
  @DF-RHF Final Energy: -1908.88168482929495
    Total Energy =                      -1908.8816848292949544
  Basis Set: 6-31G(D)
    Blend: 6-31G(D)
  Basis Set: (6-31G(D) AUX)
    Blend: CC-PVDZ-JKFIT
  Basis Set: 6-31G(D)
    Blend: 6-31G(D)
  @DF-RHF Final Energy: -1908.88247530897615
    Total Energy =                      -1908.8824753089761543
  @DF-RHF Final Energy: -1908.88263411667003
    Total Energy =                      -1908.8826341166700331
  @DF-RHF Final Energy: -1908.88266083528993
    Total Energy =                      -1908.8826608352899257
  @DF-RHF Final Energy: -1908.88267936315287
    Total Energy =                      -1908.8826793631528744
  @DF-RHF Final Energy: -1908.88268514106630
    Total Energy =                      -1908.8826851410663039
  @DF-RHF Final Energy: -1908.88268601330446
    Total Energy =                      -1908.8826860133044647
  @DF-RHF Final Energy: -1908.88268628303695
    Total Energy =                      -1908.8826862830369464
  @DF-RHF Final Energy: -1908.88268630369180
    Total Energy =                      -1908.8826863036917985
  @DF-RHF Final Energy: -1908.88268631198980
    Total Energy =                      -1908.8826863119898007
  @DF-RHF Final Energy: -1908.88268631319875
    Total Energy =                      -1908.8826863131987466
  @DF-RHF Final Energy: -1908.88268631468850
    Total Energy =                      -1908.8826863146884989
  @DF-RHF Final Energy: -1908.88268631798746
    Total Energy =                      -1908.8826863179874636
  @DF-RHF Final Energy: -1908.88268631518349
    Total Energy =                      -1908.8826863151834914
  @DF-RHF Final Energy: -1908.88268631408596
    Total Energy =                      -1908.8826863140859587
  @DF-RHF Final Energy: -1908.88268631818300
    Total Energy =                      -1908.8826863181830049
  Basis Set: (6-31G(D) AUX)
    Blend: CC-PVDZ-JKFIT
  Basis Set: 6-31G(D)
    Blend: 6-31G(D)
  Basis Set: (6-31G(D) AUX)
    Blend: CC-PVDZ-JKFIT
  @DF-RHF Final Energy: -1908.88268631734877
    Total Energy =                      -1908.8826863173487709
  Basis Set: 6-31G(D)
    Blend: 6-31G(D)
  Basis Set: (6-31G(D) AUX)
    Blend: CC-PVDZ-JKFIT
  Charge       = 0
  Multiplicity = 1
  Basis Set: 6-31G(D)
    Blend: 6-31G(D)
  Basis Set: (6-31G(D) AUX)
    Blend: CC-PVDZ-JKFIT

    Orbital Energies [Eh]
    ---------------------

    Doubly Occupied:

       1A   -104.847526     2A   -104.843103     3A   -104.841159
       4A    -20.637780     5A    -20.613606     6A    -20.577752
       7A    -11.405525     8A    -11.332825     9A    -11.330788
      10A    -11.329358    11A    -11.325631    12A    -11.323743
      13A    -11.279406    14A    -11.266805    15A    -10.580561
      16A    -10.576330    17A    -10.574424    18A     -8.050004
      19A     -8.046572    20A     -8.046511    21A     -8.045775
      22A     -8.043871    23A     -8.042246    24A     -8.042245
      25A     -8.040346    26A     -8.040314    27A     -1.501972
      28A     -1.447204    29A     -1.392479    30A     -1.239787
      31A     -1.183474    32A     -1.149601    33A     -1.110556
      34A     -1.055038    35A     -1.019464    36A     -0.980816
      37A     -0.880150    38A     -0.864780    39A     -0.812711
      40A     -0.746832    41A     -0.740671    42A     -0.724586
      43A     -0.704307    44A     -0.690734    45A     -0.670413
      46A     -0.650778    47A     -0.639342    48A     -0.617214
      49A     -0.604310    50A     -0.589205    51A     -0.572105
      52A     -0.561344    53A     -0.543175    54A     -0.526770
      55A     -0.504233    56A     -0.500840    57A     -0.496220
      58A     -0.481717    59A     -0.472270    60A     -0.460550
      61A     -0.455558    62A     -0.453049    63A     -0.361246
      64A     -0.343159

  @DF-RHF Final Energy: -1908.88268631553274

   => Energetics <=

    Nuclear Repulsion Energy =           1186.3884158048888366
    One-Electron Energy =               -4990.8764660517517768
    Two-Electron Energy =                1895.6053639313304302
    Total Energy =                      -1908.8826863155327374

  Dipole Moment: [D]
     X:    -3.0026      Y:     0.1361      Z:    -1.6246     Total:     3.4166

    Molecular point group: c1
  Basis Set: 6-31G(D)
    Blend: 6-31G(D)
  Basis Set: (6-31G(D) AUX)
    Blend: CC-PVDZ-JKFIT

  -Total Gradient:
     Atom            X                  Y                   Z
    ------   -----------------  -----------------  -----------------
       1        0.000000189712    -0.000000952772    -0.000000045388
       2        0.000000363828    -0.000000080357     0.000000045610
       3       -0.000000893009     0.000000645529    -0.000000451858
       4       -0.000000647035     0.000000623970    -0.000000232446
       5       -0.000000366079     0.000000143825     0.000000129116
       6       -0.000000185205    -0.000000038899    -0.000000077467
       7        0.000002157290    -0.000002147190     0.000001053440
       8        0.000000664510    -0.000000379458     0.000000209573
       9       -0.000000357480     0.000000559119     0.000000016488
      10        0.000000057325     0.000000142568    -0.000000292785
      11       -0.000000014989    -0.000000235286     0.000000050158
      12       -0.000000078250    -0.000000001852    -0.000000032626
      13        0.000000118577    -0.000000000720     0.000000087279
      14        0.000000118912     0.000000035885    -0.000000041185
      15        0.000000025485     0.000000084258     0.000000129559
      16       -0.000000079599     0.000000032897     0.000000003270
      17       -0.000000427557     0.000000514910    -0.000000180778
      18       -0.000000028458     0.000000198340    -0.000000064447
      19       -0.000000617947     0.000000855253    -0.000000305495

  **** Optimization is complete! (in 19 steps) ****
    Final optimized geometry and variables:
    Molecular point group: c1

    Geometry (in Angstrom), charge = 0, multiplicity = 1:

    C            0.396650384427    -0.795507199289    -1.231870800271
    O           -1.438463790903    -1.643428447857     0.039524318233
    C           -0.356403261108    -0.833271162769    -0.065869920354
    C            0.048086836055    -0.082625645534     1.022676947815
    H           -0.537540433747    -0.119581508509     1.918714403778
    O           -3.075217743102    -0.188230971266     1.732930694947
    C            1.183774135614     0.704957708685     0.953609439542
    C            1.926779326584     0.745711995791    -0.216980459991
    C            1.528408800900    -0.008666737268    -1.306511402800
    H            2.105748076937     0.014786799795    -2.209226666129
    C           -2.664904311559    -1.172968714947    -0.431828043952
    H           -3.243460068553    -2.032149502007    -0.741018147019
    H           -2.552176865113    -0.523212257935    -1.291368102733
    C           -3.444323341238    -0.433684892593     0.635159113887
    O           -4.635475188827    -0.084241049281     0.164981922755
    H           -5.111522049714     0.378747309583     0.848232736218
    CL           3.355405475317     1.713626843670    -0.366836830771
    CL          -0.062785275168    -1.748262957397    -2.608162214193
    CL           1.635628040869     1.620521185508     2.351485543593

*** Psi4 exiting successfully. Buy a developer a beer!
