                               Psi4 1.1a2.dev170

  ==> Input File <==

--------------------------------------------------------------------------
memory 20 Gb

molecule conf7 {
0 1
C         -0.22000       -1.22200        0.23800
O         -1.06500        0.69600        1.39300
C         -0.20100        0.13900        0.51500
C          0.75600        0.93400       -0.08700
H          0.78300        1.98000        0.14600
O         -3.04700        2.96600        2.23200
C          1.68300        0.39300       -0.96200
C          1.65500       -0.96500       -1.23900
C          0.70300       -1.76700       -0.63300
H          0.68500       -2.81800       -0.84000
C         -2.28600        1.13100        0.86800
H         -2.87300        0.30500        0.48700
H         -2.13700        1.84000        0.06000
C         -3.06900        1.81800        1.96200
O         -3.82300        0.92200        2.59400
H         -4.31700        1.36800        3.27600
Cl         2.78400       -1.70500       -2.32300
Cl        -1.38800       -2.25700        0.99300
Cl         2.85300        1.44900       -1.67800
}
set globals {
  reference rhf
  opt_type ts
  g_convergence gau_tight
  basis 6-31G(d)
}
optimize('scf')
--------------------------------------------------------------------------

    Molecular point group: c1
  Charge       = 0
  Multiplicity = 1
  Basis Set: file /usr/local/software/miniconda2/envs/p4env/share/psi4/basis/6-31g_d_.gbs
  Basis Set: file /usr/local/software/miniconda2/envs/p4env/share/psi4/basis/cc-pvdz-jkfit.gbs
  @DF-RHF Final Energy: -1908.87453603440918
    Total Energy =                      -1908.8745360344091750
    Molecular point group: c1
  Basis Set: file /usr/local/software/miniconda2/envs/p4env/share/psi4/basis/6-31g_d_.gbs
  Basis Set: file /usr/local/software/miniconda2/envs/p4env/share/psi4/basis/cc-pvdz-jkfit.gbs
  Basis Set: file /usr/local/software/miniconda2/envs/p4env/share/psi4/basis/6-31g_d_.gbs
  Basis Set: file /usr/local/software/miniconda2/envs/p4env/share/psi4/basis/cc-pvdz-jkfit.gbs
  @DF-RHF Final Energy: -1908.87564304201624
    Total Energy =                      -1908.8756430420162360
  Basis Set: file /usr/local/software/miniconda2/envs/p4env/share/psi4/basis/6-31g_d_.gbs
  Basis Set: file /usr/local/software/miniconda2/envs/p4env/share/psi4/basis/cc-pvdz-jkfit.gbs
  Basis Set: file /usr/local/software/miniconda2/envs/p4env/share/psi4/basis/6-31g_d_.gbs
  Basis Set: file /usr/local/software/miniconda2/envs/p4env/share/psi4/basis/cc-pvdz-jkfit.gbs
  @DF-RHF Final Energy: -1908.87529536058946
    Total Energy =                      -1908.8752953605894618
  Basis Set: file /usr/local/software/miniconda2/envs/p4env/share/psi4/basis/6-31g_d_.gbs
  Basis Set: file /usr/local/software/miniconda2/envs/p4env/share/psi4/basis/cc-pvdz-jkfit.gbs
  Basis Set: file /usr/local/software/miniconda2/envs/p4env/share/psi4/basis/6-31g_d_.gbs
  Basis Set: file /usr/local/software/miniconda2/envs/p4env/share/psi4/basis/cc-pvdz-jkfit.gbs
  @DF-RHF Final Energy: -1908.87576540549435
    Total Energy =                      -1908.8757654054943487
  Basis Set: file /usr/local/software/miniconda2/envs/p4env/share/psi4/basis/6-31g_d_.gbs
  Basis Set: file /usr/local/software/miniconda2/envs/p4env/share/psi4/basis/cc-pvdz-jkfit.gbs
  @DF-RHF Final Energy: -1908.87569140401479
    Total Energy =                      -1908.8756914040147876
  @DF-RHF Final Energy: -1908.87560286672692
    Total Energy =                      -1908.8756028667269220
  @DF-RHF Final Energy: -1908.87548978436439
    Total Energy =                      -1908.8754897843643903
  @DF-RHF Final Energy: -1908.87558586426030
    Total Energy =                      -1908.8755858642603016
  @DF-RHF Final Energy: -1908.87341700168895
    Total Energy =                      -1908.8734170016889493
  @DF-RHF Final Energy: -1908.87546208057347
    Total Energy =                      -1908.8754620805734703
  @DF-RHF Final Energy: -1908.87557402183711
    Total Energy =                      -1908.8755740218371102
  @DF-RHF Final Energy: -1908.87480128884249
    Total Energy =                      -1908.8748012888424910
  @DF-RHF Final Energy: -1908.87535030256231
    Total Energy =                      -1908.8753503025623104
  @DF-RHF Final Energy: -1908.87555082492645
    Total Energy =                      -1908.8755508249264494
  @DF-RHF Final Energy: -1908.87466564735860
    Total Energy =                      -1908.8746656473585972
  @DF-RHF Final Energy: -1908.87558177827646
    Total Energy =                      -1908.8755817782764552
  @DF-RHF Final Energy: -1908.87559069481244
    Total Energy =                      -1908.8755906948124448
  @DF-RHF Final Energy: -1908.87559402020224
    Total Energy =                      -1908.8755940202022430
  @DF-RHF Final Energy: -1908.87559424220331
    Total Energy =                      -1908.8755942422033058
  @DF-RHF Final Energy: -1908.87559448338129
    Total Energy =                      -1908.8755944833812919
  @DF-RHF Final Energy: -1908.87559475327816
    Total Energy =                      -1908.8755947532781647
  @DF-RHF Final Energy: -1908.87559474863201
    Total Energy =                      -1908.8755947486320110
  @DF-RHF Final Energy: -1908.87559474920658
    Total Energy =                      -1908.8755947492065843
  @DF-RHF Final Energy: -1908.87559475465628
    Total Energy =                      -1908.8755947546562766
  @DF-RHF Final Energy: -1908.87559474945238
    Total Energy =                      -1908.8755947494523753
  @DF-RHF Final Energy: -1908.87559475143166
    Total Energy =                      -1908.8755947514316631
  @DF-RHF Final Energy: -1908.87559474797149
    Total Energy =                      -1908.8755947479714905
  @DF-RHF Final Energy: -1908.87559475279681
    Total Energy =                      -1908.8755947527968146
  @DF-RHF Final Energy: -1908.87559474781915
    Total Energy =                      -1908.8755947478191501
  @DF-RHF Final Energy: -1908.87559475081616
    Total Energy =                      -1908.8755947508161626
  @DF-RHF Final Energy: -1908.87559475763555
    Total Energy =                      -1908.8755947576355538
  @DF-RHF Final Energy: -1908.87559474849309
    Total Energy =                      -1908.8755947484930857
  @DF-RHF Final Energy: -1908.87559474925911
    Total Energy =                      -1908.8755947492591076
  @DF-RHF Final Energy: -1908.87559475295916
    Total Energy =                      -1908.8755947529591595
  @DF-RHF Final Energy: -1908.87559474753880
    Total Energy =                      -1908.8755947475387984
  @DF-RHF Final Energy: -1908.87559474272348
    Total Energy =                      -1908.8755947427234787
  Basis Set: file /usr/local/software/miniconda2/envs/p4env/share/psi4/basis/6-31g_d_.gbs
  Basis Set: file /usr/local/software/miniconda2/envs/p4env/share/psi4/basis/cc-pvdz-jkfit.gbs
  @DF-RHF Final Energy: -1908.87559475090984
    Total Energy =                      -1908.8755947509098405
  Basis Set: file /usr/local/software/miniconda2/envs/p4env/share/psi4/basis/6-31g_d_.gbs
  Basis Set: file /usr/local/software/miniconda2/envs/p4env/share/psi4/basis/cc-pvdz-jkfit.gbs
  Basis Set: file /usr/local/software/miniconda2/envs/p4env/share/psi4/basis/6-31g_d_.gbs
  Basis Set: file /usr/local/software/miniconda2/envs/p4env/share/psi4/basis/cc-pvdz-jkfit.gbs
  @DF-RHF Final Energy: -1908.87559474543332
    Total Energy =                      -1908.8755947454333182
  Basis Set: file /usr/local/software/miniconda2/envs/p4env/share/psi4/basis/6-31g_d_.gbs
  Basis Set: file /usr/local/software/miniconda2/envs/p4env/share/psi4/basis/cc-pvdz-jkfit.gbs
  Basis Set: file /usr/local/software/miniconda2/envs/p4env/share/psi4/basis/6-31g_d_.gbs
  Basis Set: file /usr/local/software/miniconda2/envs/p4env/share/psi4/basis/cc-pvdz-jkfit.gbs
  @DF-RHF Final Energy: -1908.87559475362946
    Total Energy =                      -1908.8755947536294570
  Basis Set: file /usr/local/software/miniconda2/envs/p4env/share/psi4/basis/6-31g_d_.gbs
  Basis Set: file /usr/local/software/miniconda2/envs/p4env/share/psi4/basis/cc-pvdz-jkfit.gbs
  Charge       = 0
  Multiplicity = 1
  Basis Set: file /usr/local/software/miniconda2/envs/p4env/share/psi4/basis/6-31g_d_.gbs
  Basis Set: file /usr/local/software/miniconda2/envs/p4env/share/psi4/basis/cc-pvdz-jkfit.gbs

    Orbital Energies (a.u.)
    -----------------------

    Doubly Occupied:

       1A   -104.848743     2A   -104.847312     3A   -104.846908
       4A    -20.633759     5A    -20.617671     6A    -20.571484
       7A    -11.402091     8A    -11.337804     9A    -11.337002
      10A    -11.334129    11A    -11.329192    12A    -11.320632
      13A    -11.284080    14A    -11.275796    15A    -10.581779
      16A    -10.580579    17A    -10.580132    18A     -8.051231
      19A     -8.050024    20A     -8.049578    21A     -8.047759
      22A     -8.047703    23A     -8.046488    24A     -8.046462
      25A     -8.046039    26A     -8.046036    27A     -1.497532
      28A     -1.448188    29A     -1.387858    30A     -1.244717
      31A     -1.187163    32A     -1.154666    33A     -1.114434
      34A     -1.055562    35A     -1.021740    36A     -0.980989
      37A     -0.884195    38A     -0.856483    39A     -0.827067
      40A     -0.748554    41A     -0.740058    42A     -0.718898
      43A     -0.718055    44A     -0.678830    45A     -0.656313
      46A     -0.653479    47A     -0.635600    48A     -0.628100
      49A     -0.609290    50A     -0.592966    51A     -0.577377
      52A     -0.561315    53A     -0.560307    54A     -0.528974
      55A     -0.501259    56A     -0.500954    57A     -0.487865
      58A     -0.481926    59A     -0.474139    60A     -0.461573
      61A     -0.460277    62A     -0.456684    63A     -0.367304
      64A     -0.347178

  @DF-RHF Final Energy: -1908.87559475193984

   => Energetics <=

    Nuclear Repulsion Energy =           1166.8997862113699284
    One-Electron Energy =               -4951.6142009984023389
    Two-Electron Energy =                1875.8388200350923398
    DFT Exchange-Correlation Energy =       0.0000000000000000
    Empirical Dispersion Energy =           0.0000000000000000
    PCM Polarization Energy =               0.0000000000000000
    EFP Energy =                            0.0000000000000000
    Total Energy =                      -1908.8755947519398433
    Molecular point group: c1
  Basis Set: file /usr/local/software/miniconda2/envs/p4env/share/psi4/basis/6-31g_d_.gbs
  Basis Set: file /usr/local/software/miniconda2/envs/p4env/share/psi4/basis/cc-pvdz-jkfit.gbs

  -Total Gradient:
     Atom            X                  Y                   Z
    ------   -----------------  -----------------  -----------------
       1       -0.000000565178     0.000000637221     0.000000009319
       2        0.000000026842    -0.000000500979     0.000000304446
       3        0.000001056852     0.000000017557    -0.000001468403
       4       -0.000000112338    -0.000001102476     0.000000893735
       5        0.000000027880    -0.000000708331    -0.000000039720
       6       -0.000000752000    -0.000000617441     0.000000262897
       7       -0.000001940740     0.000000102460    -0.000000471859
       8       -0.000001077458     0.000000317017    -0.000000336249
       9        0.000001368407     0.000000137917    -0.000000319617
      10       -0.000000113936     0.000000970802     0.000000567408
      11        0.000000876170    -0.000000004780    -0.000000992810
      12        0.000000576767     0.000000391047     0.000000156071
      13       -0.000000373856    -0.000000318975     0.000000045123
      14        0.000000123899    -0.000000023740    -0.000000256276
      15        0.000000009922     0.000001365682     0.000000286555
      16       -0.000000308320    -0.000000265319     0.000000422392
      17        0.000000378258    -0.000000214070     0.000000392490
      18        0.000000357552    -0.000000099829     0.000000122930
      19        0.000000441190    -0.000000083757     0.000000421737

    Molecular point group: c1

    Geometry (in Angstrom), charge = 0, multiplicity = 1:

    C           -0.264894886677    -1.264076512584     0.170729619094
    O           -1.181918283125     0.610787393566     1.340050375244
    C           -0.269704270651     0.086704759073     0.487931070280
    C            0.706643416544     0.908659915583    -0.043369926383
    H            0.708256305955     1.948422802953     0.221104023252
    O           -2.712117487494     3.023706298253     2.144748885381
    C            1.678333092736     0.402101927351    -0.887885898850
    C            1.676194445041    -0.948422899036    -1.204815150364
    C            0.704006257824    -1.775731852594    -0.669589612098
    H            0.705800064396    -2.820413085204    -0.909444177101
    C           -2.367366003255     1.109199568166     0.760319623403
    H           -3.001114251367     0.298856168413     0.430416497686
    H           -2.138641917308     1.767703450642    -0.067207582778
    C           -3.044636471298     1.927730870761     1.843620608108
    O           -4.047113565835     1.279663771290     2.416226096506
    H           -4.415165488459     1.831803746964     3.100240611395
    CL           2.863114821289    -1.647076520717    -2.254311768410
    CL          -1.461888685681    -2.327525238574     0.834983515381
    CL           2.871137840182     1.486514039870    -1.516613236941

*** Psi4 exiting successfully. Buy a developer a beer!
