                               Psi4 1.2.1 release

  ==> Input File <==

--------------------------------------------------------------------------
memory 110 Gb

molecule conf5 {
C    -0.331218164292    -1.210386894393     0.216412654113
O    -1.058032331004     0.758118949585     1.364761265999
C    -0.220549262391     0.144563946140     0.497247564158
C     0.798424511380     0.871879867693    -0.088919131027
H     0.894349457547     1.913916103852     0.147070251063
O    -4.158698558865     2.338466789881     1.691982597078
C     1.697138083591     0.269658441558    -0.951599608140
C     1.577998471531    -1.083163799078    -1.232404527958
C     0.563495023951    -1.817308813420    -0.642052690096
H     0.475040387364    -2.864495022984    -0.852963938482
C    -2.229715552690     1.300004716103     0.816778653038
H    -2.872412817341     0.530584860219     0.411900576683
H    -1.995536573844     2.003368012041     0.023440083223
C    -3.019933982580     2.050721778456     1.863795426208
O    -2.329115170673     2.389750224168     2.933717602588
H    -2.907824350756     2.870294404866     3.518679678057
CL     2.668274255312    -1.898818359331    -2.301891882541
CL    -1.580914347912    -2.160877140089     0.951632992075
CL     2.948346075536     1.241369557153    -1.647882457144
}
set globals {
  reference rhf
  g_convergence gau_tight
  basis 6-31G(d)
}
frequency('hf', dertype=1)
--------------------------------------------------------------------------

    Molecular point group: c1
  Charge       = 0
  Multiplicity = 1
  Basis Set: 6-31G(D)
    Blend: 6-31G(D)
  Basis Set: (6-31G(D) AUX)
    Blend: CC-PVDZ-JKFIT
  @DF-RHF Final Energy: -1908.87838745905719
    Total Energy =                      -1908.8783874590571941
    Molecular point group: c1
  Basis Set: 6-31G(D)
    Blend: 6-31G(D)
  Basis Set: (6-31G(D) AUX)
    Blend: CC-PVDZ-JKFIT
  Basis Set: 6-31G(D)
    Blend: 6-31G(D)
  Basis Set: (6-31G(D) AUX)
    Blend: CC-PVDZ-JKFIT
  @DF-RHF Final Energy: -1908.87838693409935
    Total Energy =                      -1908.8783869340993533
  Basis Set: 6-31G(D)
    Blend: 6-31G(D)
  Basis Set: (6-31G(D) AUX)
    Blend: CC-PVDZ-JKFIT
  Basis Set: 6-31G(D)
    Blend: 6-31G(D)
  @DF-RHF Final Energy: -1908.87838693349636
    Total Energy =                      -1908.8783869334963583
  @DF-RHF Final Energy: -1908.87838672847352
    Total Energy =                      -1908.8783867284735152
  @DF-RHF Final Energy: -1908.87838673008173
    Total Energy =                      -1908.8783867300817292
  @DF-RHF Final Energy: -1908.87838705402010
    Total Energy =                      -1908.8783870540200951
  @DF-RHF Final Energy: -1908.87838705199488
    Total Energy =                      -1908.8783870519948778
  @DF-RHF Final Energy: -1908.87838703184525
    Total Energy =                      -1908.8783870318452500
  @DF-RHF Final Energy: -1908.87838703049874
    Total Energy =                      -1908.8783870304987431
  @DF-RHF Final Energy: -1908.87838724828748
    Total Energy =                      -1908.8783872482874813
  @DF-RHF Final Energy: -1908.87838724641529
    Total Energy =                      -1908.8783872464152864
  @DF-RHF Final Energy: -1908.87838714698682
    Total Energy =                      -1908.8783871469868245
  @DF-RHF Final Energy: -1908.87838714846134
    Total Energy =                      -1908.8783871484613428
  @DF-RHF Final Energy: -1908.87838683130099
    Total Energy =                      -1908.8783868313009862
  @DF-RHF Final Energy: -1908.87838682616143
    Total Energy =                      -1908.8783868261614316
  @DF-RHF Final Energy: -1908.87838670454016
    Total Energy =                      -1908.8783867045401621
  @DF-RHF Final Energy: -1908.87838670532119
    Total Energy =                      -1908.8783867053211907
  @DF-RHF Final Energy: -1908.87838701056216
    Total Energy =                      -1908.8783870105621645
  @DF-RHF Final Energy: -1908.87838701052760
    Total Energy =                      -1908.8783870105276037
  @DF-RHF Final Energy: -1908.87838687326757
    Total Energy =                      -1908.8783868732675728
  @DF-RHF Final Energy: -1908.87838666302105
    Total Energy =                      -1908.8783866630210468
  @DF-RHF Final Energy: -1908.87838697322695
    Total Energy =                      -1908.8783869732269523
  @DF-RHF Final Energy: -1908.87838697466123
    Total Energy =                      -1908.8783869746612254
  @DF-RHF Final Energy: -1908.87838721827552
    Total Energy =                      -1908.8783872182755204
  @DF-RHF Final Energy: -1908.87838722042761
    Total Energy =                      -1908.8783872204276122
  @DF-RHF Final Energy: -1908.87838716471447
    Total Energy =                      -1908.8783871647144679
  @DF-RHF Final Energy: -1908.87838716661895
    Total Energy =                      -1908.8783871666189498
  @DF-RHF Final Energy: -1908.87838436188122
    Total Energy =                      -1908.8783843618812170
  @DF-RHF Final Energy: -1908.87838434788637
    Total Energy =                      -1908.8783843478863673
  @DF-RHF Final Energy: -1908.87838533830086
    Total Energy =                      -1908.8783853383008591
  @DF-RHF Final Energy: -1908.87838533822514
    Total Energy =                      -1908.8783853382251436
  @DF-RHF Final Energy: -1908.87838463166736
    Total Energy =                      -1908.8783846316673589
  @DF-RHF Final Energy: -1908.87838463798948
    Total Energy =                      -1908.8783846379894840
  @DF-RHF Final Energy: -1908.87838738263963
    Total Energy =                      -1908.8783873826396302
  @DF-RHF Final Energy: -1908.87838738202413
    Total Energy =                      -1908.8783873820241297
  @DF-RHF Final Energy: -1908.87838741232417
    Total Energy =                      -1908.8783874123241731
  @DF-RHF Final Energy: -1908.87838741696942
    Total Energy =                      -1908.8783874169694172
  @DF-RHF Final Energy: -1908.87838735346395
    Total Energy =                      -1908.8783873534639497
  Basis Set: (6-31G(D) AUX)
    Blend: CC-PVDZ-JKFIT
  Basis Set: 6-31G(D)
    Blend: 6-31G(D)
  Basis Set: (6-31G(D) AUX)
    Blend: CC-PVDZ-JKFIT
  @DF-RHF Final Energy: -1908.87838735049263
    Total Energy =                      -1908.8783873504926305
  Basis Set: 6-31G(D)
    Blend: 6-31G(D)
  Basis Set: (6-31G(D) AUX)
    Blend: CC-PVDZ-JKFIT
    Molecular point group: c1
  Charge       = 0
  Multiplicity = 1
  Basis Set: 6-31G(D)
    Blend: 6-31G(D)
  Basis Set: (6-31G(D) AUX)
    Blend: CC-PVDZ-JKFIT

    Orbital Energies [Eh]
    ---------------------

    Doubly Occupied:

       1A   -104.849867     2A   -104.849067     3A   -104.847853
       4A    -20.631828     5A    -20.616471     6A    -20.568046
       7A    -11.403169     8A    -11.339263     9A    -11.338483
      10A    -11.335109    11A    -11.330156    12A    -11.323015
      13A    -11.285261    14A    -11.277520    15A    -10.582903
      16A    -10.582335    17A    -10.581074    18A     -8.052352
      19A     -8.051779    20A     -8.050521    21A     -8.048885
      22A     -8.048826    23A     -8.048244    24A     -8.048222
      25A     -8.046980    26A     -8.046975    27A     -1.498131
      28A     -1.449733    29A     -1.386543    30A     -1.245992
      31A     -1.188346    32A     -1.155950    33A     -1.115868
      34A     -1.056865    35A     -1.022896    36A     -0.981728
      37A     -0.884797    38A     -0.858327    39A     -0.830892
      40A     -0.746367    41A     -0.740943    42A     -0.725101
      43A     -0.708370    44A     -0.684375    45A     -0.675812
      46A     -0.650657    47A     -0.625537    48A     -0.622419
      49A     -0.610489    50A     -0.592131    51A     -0.577588
      52A     -0.567769    53A     -0.559077    54A     -0.530303
      55A     -0.502588    56A     -0.501951    57A     -0.487883
      58A     -0.478615    59A     -0.471539    60A     -0.466474
      61A     -0.460693    62A     -0.458598    63A     -0.368591
      64A     -0.348123

  @DF-RHF Final Energy: -1908.87838745859426

   => Energetics <=

    Nuclear Repulsion Energy =           1167.2741771121513921
    One-Electron Energy =               -4952.2605959576403620
    Two-Electron Energy =                1876.1080313868947087
    Total Energy =                      -1908.8783874585942613

  Dipole Moment: [D]
     X:    -0.0461      Y:     0.6965      Z:     0.2839     Total:     0.7536

    Molecular point group: c1

    Geometry (in Angstrom), charge = 0, multiplicity = 1:

       Center              X                  Y                   Z               Mass
    ------------   -----------------  -----------------  -----------------  -----------------
         C           -0.331218164292    -1.210386894393     0.216412654113    12.000000000000
         O           -1.058032331004     0.758118949585     1.364761265999    15.994914619560
         C           -0.220549262391     0.144563946140     0.497247564158    12.000000000000
         C            0.798424511380     0.871879867693    -0.088919131027    12.000000000000
         H            0.894349457547     1.913916103852     0.147070251063     1.007825032070
         O           -4.158698558865     2.338466789881     1.691982597078    15.994914619560
         C            1.697138083591     0.269658441558    -0.951599608140    12.000000000000
         C            1.577998471531    -1.083163799078    -1.232404527958    12.000000000000
         C            0.563495023951    -1.817308813420    -0.642052690096    12.000000000000
         H            0.475040387364    -2.864495022984    -0.852963938482     1.007825032070
         C           -2.229715552690     1.300004716103     0.816778653038    12.000000000000
         H           -2.872412817341     0.530584860219     0.411900576683     1.007825032070
         H           -1.995536573844     2.003368012041     0.023440083223     1.007825032070
         C           -3.019933982580     2.050721778456     1.863795426208    12.000000000000
         O           -2.329115170673     2.389750224168     2.933717602588    15.994914619560
         H           -2.907824350756     2.870294404866     3.518679678057     1.007825032070
         CL           2.668274255312    -1.898818359331    -2.301891882541    34.968852682000
         CL          -1.580914347912    -2.160877140089     0.951632992075    34.968852682000
         CL           2.948346075536     1.241369557153    -1.647882457144    34.968852682000

  Basis Set: 6-31G(D)
    Blend: 6-31G(D)
  Basis Set: (6-31G(D) AUX)
    Blend: CC-PVDZ-JKFIT

  -Total Gradient:
     Atom            X                  Y                   Z
    ------   -----------------  -----------------  -----------------
       1        0.000000462767    -0.000000750184    -0.000001094257
       2       -0.000001103028     0.000000720616    -0.000000256920
       3        0.000000957179     0.000000593922     0.000000017139
       4       -0.000000444120    -0.000000338650    -0.000000130457
       5        0.000000228757    -0.000000442397    -0.000000439607
       6       -0.000005271646    -0.000001488149    -0.000003004508
       7       -0.000000167780    -0.000000198184     0.000000029028
       8        0.000000191181     0.000000557109     0.000000579726
       9       -0.000000737585     0.000000242648     0.000000441322
      10       -0.000000055971     0.000000780645     0.000000248028
      11        0.000000536863    -0.000001819866     0.000001259342
      12       -0.000001172673     0.000000401649    -0.000000879260
      13       -0.000000990599    -0.000000242434     0.000000855905
      14        0.000010748317     0.000003518193     0.000005050799
      15       -0.000002544952    -0.000001384589    -0.000002380190
      16       -0.000000107686    -0.000000233367    -0.000000325407
      17       -0.000000097374    -0.000000172496    -0.000000138485
      18       -0.000000196590     0.000000204068     0.000000011436
      19       -0.000000234861     0.000000051534     0.000000156310

  Vibration                       7                   8                   9
  Freq [cm^-1]                  9.8048             29.4157             53.7306
  Irrep                           A                   A                   A
  Reduced mass [u]              8.2015             12.4836             14.6203
  Force const [mDyne/A]         0.0005              0.0064              0.0249

  Vibration                       10                  11                  12
  Freq [cm^-1]                 85.5798             109.5007            174.7124
  Irrep                           A                   A                   A
  Reduced mass [u]              2.9267              7.5805              9.2511
  Force const [mDyne/A]         0.0126              0.0536              0.1664

  Vibration                       13                  14                  15
  Freq [cm^-1]                 191.9400            211.7661            242.2455
  Irrep                           A                   A                   A
  Reduced mass [u]             10.3335             28.8193             10.6159
  Force const [mDyne/A]         0.2243              0.7615              0.3670

  Vibration                       16                  17                  18
  Freq [cm^-1]                 274.1770            300.4398            355.5228
  Irrep                           A                   A                   A
  Reduced mass [u]              7.2964             11.4787             22.0678
  Force const [mDyne/A]         0.3232              0.6105              1.6434

  Vibration                       19                  20                  21
  Freq [cm^-1]                 396.4874            464.8702            501.7765
  Irrep                           A                   A                   A
  Reduced mass [u]             13.0869              7.3248              7.2746
  Force const [mDyne/A]         1.2121              0.9326              1.0791

  Vibration                       22                  23                  24
  Freq [cm^-1]                 524.0916            577.4177            583.9485
  Irrep                           A                   A                   A
  Reduced mass [u]              3.2873              1.8475              6.3125
  Force const [mDyne/A]         0.5320              0.3629              1.2682

  Vibration                       25                  26                  27
  Freq [cm^-1]                 628.4666            668.5812            729.2852
  Irrep                           A                   A                   A
  Reduced mass [u]              6.2835              3.3587              7.0359
  Force const [mDyne/A]         1.4622              0.8846              2.2048

  Vibration                       28                  29                  30
  Freq [cm^-1]                 744.4632            749.5672            795.4945
  Irrep                           A                   A                   A
  Reduced mass [u]              2.8655              3.3956              4.3929
  Force const [mDyne/A]         0.9357              1.1240              1.6379

  Vibration                       31                  32                  33
  Freq [cm^-1]                 836.3719            965.9622           1004.7221
  Irrep                           A                   A                   A
  Reduced mass [u]              6.3443              3.1836              1.5937
  Force const [mDyne/A]         2.6148              1.7502              0.9479

  Vibration                       34                  35                  36
  Freq [cm^-1]                1023.7316           1038.0965           1141.5860
  Irrep                           A                   A                   A
  Reduced mass [u]              1.7643              3.9294              2.0911
  Force const [mDyne/A]         1.0894              2.4949              1.6056

  Vibration                       37                  38                  39
  Freq [cm^-1]                1192.0471           1197.0512           1212.2368
  Irrep                           A                   A                   A
  Reduced mass [u]              5.5487              9.2997              4.5690
  Force const [mDyne/A]         4.6454              7.8513              3.9559

  Vibration                       40                  41                  42
  Freq [cm^-1]                1259.9939           1344.2793           1375.8921
  Irrep                           A                   A                   A
  Reduced mass [u]              2.4097              1.8687              1.2838
  Force const [mDyne/A]         2.2539              1.9896              1.4319

  Vibration                       43                  44                  45
  Freq [cm^-1]                1395.1479           1404.1096           1497.8098
  Irrep                           A                   A                   A
  Reduced mass [u]              1.0994              4.5636              4.5492
  Force const [mDyne/A]         1.2608              5.3010              6.0131

  Vibration                       46                  47                  48
  Freq [cm^-1]                1527.0292           1583.1836           1642.0793
  Irrep                           A                   A                   A
  Reduced mass [u]              1.9311              2.5605              1.1760
  Force const [mDyne/A]         2.6531              3.7813              1.8683

  Vibration                       49                  50                  51
  Freq [cm^-1]                1652.8821           1743.7042           1792.1236
  Irrep                           A                   A                   A
  Reduced mass [u]              2.5695             10.3576              6.5080
  Force const [mDyne/A]         4.1360             18.5548             12.3150

  Vibration                       52                  53                  54
  Freq [cm^-1]                2036.3071           3229.2633           3306.1967
  Irrep                           A                   A                   A
  Reduced mass [u]             10.0595              1.0657              1.0995
  Force const [mDyne/A]        24.5760              6.5475              7.0812

  Vibration                       55                  56                  57
  Freq [cm^-1]                3411.7950           3421.5275           4047.8949
  Irrep                           A                   A                   A
  Reduced mass [u]              1.0937              1.0941              1.0651
  Force const [mDyne/A]         7.5010              7.5467             10.2829

  ==> Thermochemistry Components <==

  Entropy, S
    Electronic S            0.000 [cal/(mol K)]        0.000 [J/(mol K)]       0.00000000 [mEh/K] (multiplicity = 1)
    Translational S        42.496 [cal/(mol K)]      177.803 [J/(mol K)]       0.06772143 [mEh/K] (mol. weight = 253.9304 [u], P = 101325.00 [Pa])
    Rotational S           33.371 [cal/(mol K)]      139.624 [J/(mol K)]       0.05317987 [mEh/K] (symmetry no. = 1)
    Vibrational S          44.740 [cal/(mol K)]      187.194 [J/(mol K)]       0.07129825 [mEh/K]
  Total S                 120.607 [cal/(mol K)]      504.620 [J/(mol K)]       0.19219955 [mEh/K]
  Correction S              0.000 [cal/(mol K)]        0.000 [J/(mol K)]       0.00000000 [mEh/K]

  Constant volume heat capacity, Cv
    Electronic Cv           0.000 [cal/(mol K)]        0.000 [J/(mol K)]       0.00000000 [mEh/K]
    Translational Cv        2.981 [cal/(mol K)]       12.472 [J/(mol K)]       0.00475022 [mEh/K]
    Rotational Cv           2.981 [cal/(mol K)]       12.472 [J/(mol K)]       0.00475022 [mEh/K]
    Vibrational Cv         38.212 [cal/(mol K)]      159.877 [J/(mol K)]       0.06089407 [mEh/K]
  Total Cv                 44.173 [cal/(mol K)]      184.821 [J/(mol K)]       0.07039452 [mEh/K]
  Correction Cv             0.000 [cal/(mol K)]        0.000 [J/(mol K)]       0.00000000 [mEh/K]

  Constant pressure heat capacity, Cp
    Electronic Cp           0.000 [cal/(mol K)]        0.000 [J/(mol K)]       0.00000000 [mEh/K]
    Translational Cp        4.968 [cal/(mol K)]       20.786 [J/(mol K)]       0.00791704 [mEh/K]
    Rotational Cp           2.981 [cal/(mol K)]       12.472 [J/(mol K)]       0.00475022 [mEh/K]
    Vibrational Cp         38.212 [cal/(mol K)]      159.877 [J/(mol K)]       0.06089407 [mEh/K]
  Total Cp                 46.160 [cal/(mol K)]      193.135 [J/(mol K)]       0.07356133 [mEh/K]
  Correction Cp             0.000 [cal/(mol K)]        0.000 [J/(mol K)]       0.00000000 [mEh/K]

  ==> Thermochemistry Energy Analysis <==

  Raw electronic energy, E0
  Total E0, Electronic energy at well bottom at 0 [K]                -1908.87838746 [Eh]

  Zero-point energy, ZPE_vib = Sum_i nu_i / 2
    Electronic ZPE          0.000 [kcal/mol]        0.000 [kJ/mol]       0.00000000 [Eh]
    Translational ZPE       0.000 [kcal/mol]        0.000 [kJ/mol]       0.00000000 [Eh]
    Rotational ZPE          0.000 [kcal/mol]        0.000 [kJ/mol]       0.00000000 [Eh]
    Vibrational ZPE        81.037 [kcal/mol]      339.059 [kJ/mol]       0.12914089 [Eh]       28343.145 [cm^-1]
  Correction ZPE           81.037 [kcal/mol]      339.059 [kJ/mol]       0.12914089 [Eh]       28343.145 [cm^-1]
  Total ZPE, Electronic energy at 0 [K]                              -1908.74924657 [Eh]

  Thermal Energy, E (includes ZPE)
    Electronic E            0.000 [kcal/mol]        0.000 [kJ/mol]       0.00000000 [Eh]
    Translational E         0.889 [kcal/mol]        3.718 [kJ/mol]       0.00141628 [Eh]
    Rotational E            0.889 [kcal/mol]        3.718 [kJ/mol]       0.00141628 [Eh]
    Vibrational E          87.236 [kcal/mol]      364.997 [kJ/mol]       0.13902003 [Eh]
  Correction E             89.014 [kcal/mol]      372.434 [kJ/mol]       0.14185259 [Eh]
  Total E, Electronic energy at  298.15 [K]                          -1908.73653487 [Eh]

  Enthalpy, H_trans = E_trans + k_B * T
    Electronic H            0.000 [kcal/mol]        0.000 [kJ/mol]       0.00000000 [Eh]
    Translational H         1.481 [kcal/mol]        6.197 [kJ/mol]       0.00236046 [Eh]
    Rotational H            0.889 [kcal/mol]        3.718 [kJ/mol]       0.00141628 [Eh]
    Vibrational H          87.236 [kcal/mol]      364.997 [kJ/mol]       0.13902003 [Eh]
  Correction H             89.606 [kcal/mol]      374.913 [kJ/mol]       0.14279677 [Eh]
  Total H, Enthalpy at  298.15 [K]                                   -1908.73559069 [Eh]

  Gibbs free energy, G = H - T * S
    Electronic G            0.000 [kcal/mol]        0.000 [kJ/mol]       0.00000000 [Eh]
    Translational G       -11.189 [kcal/mol]      -46.814 [kJ/mol]      -0.01783068 [Eh]
    Rotational G           -9.061 [kcal/mol]      -37.910 [kJ/mol]      -0.01443930 [Eh]
    Vibrational G          73.897 [kcal/mol]      309.185 [kJ/mol]       0.11776245 [Eh]
  Correction G             53.647 [kcal/mol]      224.460 [kJ/mol]       0.08549247 [Eh]
  Total G, Free enthalpy at  298.15 [K]                              -1908.79289498 [Eh]

*** Psi4 exiting successfully. Buy a developer a beer!
