                               Psi4 1.2.1 release

  ==> Input File <==

--------------------------------------------------------------------------
memory 110 Gb

molecule molecule_1 {
    C            1.243384873651    -0.553327042251    -0.656822911851
    O            1.246781758555     1.784310747571    -0.148627178379
    C            0.577645351133     0.619210161727    -0.322205407311
    C           -0.801771232164     0.605460556206    -0.231643198010
    H           -1.311145021654     1.515926452256     0.010187939104
    O            1.373930742304     2.936778574616     3.210659736837
    C           -1.515549413650    -0.558856391206    -0.455032487882
    C           -0.844238712188    -1.729162790057    -0.774650703247
    C            0.536163016532    -1.718098713638    -0.876601108753
    H            1.056651670815    -2.618891866566    -1.134461325835
    C            1.858960536947     2.017172498748     1.088859728105
    H            2.726039462849     2.635300003023     0.902858621287
    H            2.197054903682     1.102349504016     1.555888785795
    C            1.001154442913     2.753348082595     2.099261950920
    O           -0.158755063523     3.187841927737     1.637011993567
    H           -0.602582810620     3.649642431175     2.343035899296
    CL          -1.678152192567    -3.219187924273    -1.062136931510
    CL           2.970172275707    -0.569093931528    -0.825544467258
    CL          -3.240772045718    -0.503112527800    -0.323460442306
}
set globals {
  reference rhf
  g_convergence gau_tight
  basis 6-31G(d)
}
frequency('hf', dertype=1)
--------------------------------------------------------------------------

    Molecular point group: c1
  Charge       = 0
  Multiplicity = 1
  Basis Set: 6-31G(D)
    Blend: 6-31G(D)
  Basis Set: (6-31G(D) AUX)
    Blend: CC-PVDZ-JKFIT
  @DF-RHF Final Energy: -1908.87995652299151
    Total Energy =                      -1908.8799565229915061
    Molecular point group: c1
  Basis Set: 6-31G(D)
    Blend: 6-31G(D)
  Basis Set: (6-31G(D) AUX)
    Blend: CC-PVDZ-JKFIT
  Basis Set: 6-31G(D)
    Blend: 6-31G(D)
  Basis Set: (6-31G(D) AUX)
    Blend: CC-PVDZ-JKFIT
  @DF-RHF Final Energy: -1908.87995582527060
    Total Energy =                      -1908.8799558252705992
  Basis Set: 6-31G(D)
    Blend: 6-31G(D)
  Basis Set: (6-31G(D) AUX)
    Blend: CC-PVDZ-JKFIT
  Basis Set: 6-31G(D)
    Blend: 6-31G(D)
  @DF-RHF Final Energy: -1908.87995582317239
    Total Energy =                      -1908.8799558231723950
  @DF-RHF Final Energy: -1908.87995575325499
    Total Energy =                      -1908.8799557532549898
  @DF-RHF Final Energy: -1908.87995575036484
    Total Energy =                      -1908.8799557503648430
  @DF-RHF Final Energy: -1908.87995632874049
    Total Energy =                      -1908.8799563287404908
  @DF-RHF Final Energy: -1908.87995632916000
    Total Energy =                      -1908.8799563291599952
  @DF-RHF Final Energy: -1908.87995628177987
    Total Energy =                      -1908.8799562817798687
  @DF-RHF Final Energy: -1908.87995628171143
    Total Energy =                      -1908.8799562817114293
  @DF-RHF Final Energy: -1908.87995615238742
    Total Energy =                      -1908.8799561523874218
  @DF-RHF Final Energy: -1908.87995615242721
    Total Energy =                      -1908.8799561524272121
  @DF-RHF Final Energy: -1908.87995617850811
    Total Energy =                      -1908.8799561785081096
  @DF-RHF Final Energy: -1908.87995617353295
    Total Energy =                      -1908.8799561735329462
  @DF-RHF Final Energy: -1908.87995571055103
    Total Energy =                      -1908.8799557105510303
  @DF-RHF Final Energy: -1908.87995571398415
    Total Energy =                      -1908.8799557139841454
  @DF-RHF Final Energy: -1908.87995576285425
    Total Energy =                      -1908.8799557628542516
  @DF-RHF Final Energy: -1908.87995576515073
    Total Energy =                      -1908.8799557651507257
  @DF-RHF Final Energy: -1908.87995626804513
    Total Energy =                      -1908.8799562680451345
  @DF-RHF Final Energy: -1908.87995627992655
    Total Energy =                      -1908.8799562799265459
  @DF-RHF Final Energy: -1908.87995570659541
    Total Energy =                      -1908.8799557065954104
  @DF-RHF Final Energy: -1908.87995555674161
    Total Energy =                      -1908.8799555567416064
  @DF-RHF Final Energy: -1908.87995613117209
    Total Energy =                      -1908.8799561311720936
  @DF-RHF Final Energy: -1908.87995613470912
    Total Energy =                      -1908.8799561347091185
  @DF-RHF Final Energy: -1908.87995629630655
    Total Energy =                      -1908.8799562963065455
  @DF-RHF Final Energy: -1908.87995629194074
    Total Energy =                      -1908.8799562919407435
  @DF-RHF Final Energy: -1908.87995594918152
    Total Energy =                      -1908.8799559491815216
  @DF-RHF Final Energy: -1908.87995594784434
    Total Energy =                      -1908.8799559478443371
  @DF-RHF Final Energy: -1908.87995438721100
    Total Energy =                      -1908.8799543872110007
  @DF-RHF Final Energy: -1908.87995438871758
    Total Energy =                      -1908.8799543887175787
  @DF-RHF Final Energy: -1908.87995431692207
    Total Energy =                      -1908.8799543169220669
  @DF-RHF Final Energy: -1908.87995431264130
    Total Energy =                      -1908.8799543126413027
  @DF-RHF Final Energy: -1908.87995296595022
    Total Energy =                      -1908.8799529659502241
  @DF-RHF Final Energy: -1908.87995298920146
    Total Energy =                      -1908.8799529892014561
  @DF-RHF Final Energy: -1908.87995646360696
    Total Energy =                      -1908.8799564636069590
  @DF-RHF Final Energy: -1908.87995646476566
    Total Energy =                      -1908.8799564647656553
  @DF-RHF Final Energy: -1908.87995646618310
    Total Energy =                      -1908.8799564661831027
  @DF-RHF Final Energy: -1908.87995646357467
    Total Energy =                      -1908.8799564635746719
  @DF-RHF Final Energy: -1908.87995642117630
    Total Energy =                      -1908.8799564211763027
  Basis Set: (6-31G(D) AUX)
    Blend: CC-PVDZ-JKFIT
  Basis Set: 6-31G(D)
    Blend: 6-31G(D)
  Basis Set: (6-31G(D) AUX)
    Blend: CC-PVDZ-JKFIT
  @DF-RHF Final Energy: -1908.87995641927478
    Total Energy =                      -1908.8799564192747766
  Basis Set: 6-31G(D)
    Blend: 6-31G(D)
  Basis Set: (6-31G(D) AUX)
    Blend: CC-PVDZ-JKFIT
    Molecular point group: c1
  Charge       = 0
  Multiplicity = 1
  Basis Set: 6-31G(D)
    Blend: 6-31G(D)
  Basis Set: (6-31G(D) AUX)
    Blend: CC-PVDZ-JKFIT

    Orbital Energies [Eh]
    ---------------------

    Doubly Occupied:

       1A   -104.850319     2A   -104.846822     3A   -104.846549
       4A    -20.639342     5A    -20.616741     6A    -20.571767
       7A    -11.404865     8A    -11.337770     9A    -11.335847
      10A    -11.333421    11A    -11.329341    12A    -11.323561
      13A    -11.283593    14A    -11.272949    15A    -10.583359
      16A    -10.580086    17A    -10.579771    18A     -8.052801
      19A     -8.049529    20A     -8.049354    21A     -8.049296
      22A     -8.049217    23A     -8.046004    24A     -8.045980
      25A     -8.045680    26A     -8.045676    27A     -1.502440
      28A     -1.448547    29A     -1.390905    30A     -1.244174
      31A     -1.187295    32A     -1.154076    33A     -1.114742
      34A     -1.055483    35A     -1.021138    36A     -0.981886
      37A     -0.882603    38A     -0.869761    39A     -0.825344
      40A     -0.751109    41A     -0.740058    42A     -0.720006
      43A     -0.709888    44A     -0.685360    45A     -0.672250
      46A     -0.652354    47A     -0.639856    48A     -0.613258
      49A     -0.609272    50A     -0.593428    51A     -0.575209
      52A     -0.564234    53A     -0.549935    54A     -0.530594
      55A     -0.514752    56A     -0.500672    57A     -0.495760
      58A     -0.485563    59A     -0.474890    60A     -0.460807
      61A     -0.459163    62A     -0.451446    63A     -0.366104
      64A     -0.346792

  @DF-RHF Final Energy: -1908.87995652476411

   => Energetics <=

    Nuclear Repulsion Energy =           1187.2788510549498824
    One-Electron Energy =               -4992.2960322732724308
    Two-Electron Energy =                1896.1372246935584371
    Total Energy =                      -1908.8799565247641112

  Dipole Moment: [D]
     X:     0.1373      Y:     0.8204      Z:     0.1417     Total:     0.8437

    Molecular point group: c1

    Geometry (in Angstrom), charge = 0, multiplicity = 1:

       Center              X                  Y                   Z               Mass
    ------------   -----------------  -----------------  -----------------  -----------------
         C            1.243384873651    -0.553327042251    -0.656822911851    12.000000000000
         O            1.246781758555     1.784310747571    -0.148627178379    15.994914619560
         C            0.577645351133     0.619210161727    -0.322205407311    12.000000000000
         C           -0.801771232164     0.605460556206    -0.231643198010    12.000000000000
         H           -1.311145021654     1.515926452256     0.010187939104     1.007825032070
         O            1.373930742304     2.936778574616     3.210659736837    15.994914619560
         C           -1.515549413650    -0.558856391206    -0.455032487882    12.000000000000
         C           -0.844238712188    -1.729162790057    -0.774650703247    12.000000000000
         C            0.536163016532    -1.718098713638    -0.876601108753    12.000000000000
         H            1.056651670815    -2.618891866566    -1.134461325835     1.007825032070
         C            1.858960536947     2.017172498748     1.088859728105    12.000000000000
         H            2.726039462849     2.635300003023     0.902858621287     1.007825032070
         H            2.197054903682     1.102349504016     1.555888785795     1.007825032070
         C            1.001154442913     2.753348082595     2.099261950920    12.000000000000
         O           -0.158755063523     3.187841927737     1.637011993567    15.994914619560
         H           -0.602582810620     3.649642431175     2.343035899296     1.007825032070
         CL          -1.678152192567    -3.219187924273    -1.062136931510    34.968852682000
         CL           2.970172275707    -0.569093931528    -0.825544467258    34.968852682000
         CL          -3.240772045718    -0.503112527800    -0.323460442306    34.968852682000

  Basis Set: 6-31G(D)
    Blend: 6-31G(D)
  Basis Set: (6-31G(D) AUX)
    Blend: CC-PVDZ-JKFIT

  -Total Gradient:
     Atom            X                  Y                   Z
    ------   -----------------  -----------------  -----------------
       1        0.000000202323     0.000001782477     0.000000519099
       2       -0.000000094124    -0.000000513974     0.000001755070
       3        0.000000562396    -0.000001825953    -0.000004315546
       4       -0.000001278046    -0.000001869826    -0.000001280108
       5        0.000000065692     0.000000267402     0.000000140292
       6        0.000000100838     0.000000819962     0.000001206230
       7        0.000000722004     0.000000180301     0.000003270200
       8        0.000000728506     0.000000057273    -0.000002414752
       9       -0.000001702889    -0.000000078797     0.000000611064
      10        0.000000300785    -0.000000006116     0.000000282561
      11        0.000000716189     0.000000565480    -0.000001793294
      12        0.000000116725    -0.000000104025     0.000000768423
      13        0.000000072169     0.000000054263     0.000000288661
      14        0.000001353402    -0.000001500581     0.000000077103
      15       -0.000000723394     0.000001453375     0.000000518832
      16       -0.000000592879     0.000000277307    -0.000000033563
      17        0.000000336507     0.000000538325     0.000000453014
      18       -0.000000335715    -0.000000227266     0.000000360714
      19       -0.000000550493     0.000000130354    -0.000000413957

  Vibration                       7                   8                   9
  Freq [cm^-1]                 23.3614             32.4224             64.8549
  Irrep                           A                   A                   A
  Reduced mass [u]             12.7462              7.4501              9.8419
  Force const [mDyne/A]         0.0041              0.0046              0.0244

  Vibration                       10                  11                  12
  Freq [cm^-1]                 80.2365             135.1342            178.7685
  Irrep                           A                   A                   A
  Reduced mass [u]              9.0346              5.7890              9.3087
  Force const [mDyne/A]         0.0343              0.0623              0.1753

  Vibration                       13                  14                  15
  Freq [cm^-1]                 213.5234            226.6875            231.6463
  Irrep                           A                   A                   A
  Reduced mass [u]             16.9672              5.3968             14.5720
  Force const [mDyne/A]         0.4558              0.1634              0.4607

  Vibration                       16                  17                  18
  Freq [cm^-1]                 289.3703            349.0639            353.4143
  Irrep                           A                   A                   A
  Reduced mass [u]              5.5481             13.4075             15.3144
  Force const [mDyne/A]         0.2737              0.9625              1.1270

  Vibration                       19                  20                  21
  Freq [cm^-1]                 397.5486            459.1440            509.2717
  Irrep                           A                   A                   A
  Reduced mass [u]             14.9015              6.8016              3.8045
  Force const [mDyne/A]         1.3876              0.8448              0.5814

  Vibration                       22                  23                  24
  Freq [cm^-1]                 550.4059            569.9597            576.5792
  Irrep                           A                   A                   A
  Reduced mass [u]              1.9839              6.2092              4.8432
  Force const [mDyne/A]         0.3541              1.1884              0.9486

  Vibration                       25                  26                  27
  Freq [cm^-1]                 629.3142            666.7003            730.1721
  Irrep                           A                   A                   A
  Reduced mass [u]              6.1597              4.0776              2.0839
  Force const [mDyne/A]         1.4373              1.0679              0.6546

  Vibration                       28                  29                  30
  Freq [cm^-1]                 734.6507            745.0330            791.4081
  Irrep                           A                   A                   A
  Reduced mass [u]              6.1615              4.2521              5.8311
  Force const [mDyne/A]         1.9593              1.3906              2.1518

  Vibration                       31                  32                  33
  Freq [cm^-1]                 817.6184            929.2937           1005.5094
  Irrep                           A                   A                   A
  Reduced mass [u]              4.5380              4.1694              1.9312
  Force const [mDyne/A]         1.7874              2.1214              1.1504

  Vibration                       34                  35                  36
  Freq [cm^-1]                1008.5834           1031.4835           1152.4503
  Irrep                           A                   A                   A
  Reduced mass [u]              3.2337              1.4241              2.6118
  Force const [mDyne/A]         1.9381              0.8928              2.0438

  Vibration                       37                  38                  39
  Freq [cm^-1]                1189.5727           1196.8738           1211.9607
  Irrep                           A                   A                   A
  Reduced mass [u]              5.6155              8.0068              4.0793
  Force const [mDyne/A]         4.6819              6.7578              3.5303

  Vibration                       40                  41                  42
  Freq [cm^-1]                1259.9710           1340.9573           1375.9340
  Irrep                           A                   A                   A
  Reduced mass [u]              2.3511              2.0665              1.4631
  Force const [mDyne/A]         2.1991              2.1894              1.6320

  Vibration                       43                  44                  45
  Freq [cm^-1]                1386.5560           1444.8515           1495.1763
  Irrep                           A                   A                   A
  Reduced mass [u]              1.8027              1.5032              3.7317
  Force const [mDyne/A]         2.0420              1.8489              4.9153

  Vibration                       46                  47                  48
  Freq [cm^-1]                1527.2135           1553.3407           1617.8852
  Irrep                           A                   A                   A
  Reduced mass [u]              1.8181              2.6916              1.1313
  Force const [mDyne/A]         2.4985              3.8264              1.7447

  Vibration                       49                  50                  51
  Freq [cm^-1]                1653.4151           1741.8723           1791.2282
  Irrep                           A                   A                   A
  Reduced mass [u]              2.8246             10.1533              6.5498
  Force const [mDyne/A]         4.5496             18.1506             12.3817

  Vibration                       52                  53                  54
  Freq [cm^-1]                2036.5993           3271.4912           3325.3792
  Irrep                           A                   A                   A
  Reduced mass [u]             10.0720              1.0596              1.1083
  Force const [mDyne/A]        24.6137              6.6817              7.2206

  Vibration                       55                  56                  57
  Freq [cm^-1]                3421.5769           3438.9614           4042.6644
  Irrep                           A                   A                   A
  Reduced mass [u]              1.0940              1.0936              1.0652
  Force const [mDyne/A]         7.5460              7.6204             10.2566

  ==> Thermochemistry Components <==

  Entropy, S
    Electronic S            0.000 [cal/(mol K)]        0.000 [J/(mol K)]       0.00000000 [mEh/K] (multiplicity = 1)
    Translational S        42.496 [cal/(mol K)]      177.803 [J/(mol K)]       0.06772143 [mEh/K] (mol. weight = 253.9304 [u], P = 101325.00 [Pa])
    Rotational S           33.250 [cal/(mol K)]      139.118 [J/(mol K)]       0.05298717 [mEh/K] (symmetry no. = 1)
    Vibrational S          41.582 [cal/(mol K)]      173.980 [J/(mol K)]       0.06626544 [mEh/K]
  Total S                 117.328 [cal/(mol K)]      490.900 [J/(mol K)]       0.18697403 [mEh/K]
  Correction S              0.000 [cal/(mol K)]        0.000 [J/(mol K)]       0.00000000 [mEh/K]

  Constant volume heat capacity, Cv
    Electronic Cv           0.000 [cal/(mol K)]        0.000 [J/(mol K)]       0.00000000 [mEh/K]
    Translational Cv        2.981 [cal/(mol K)]       12.472 [J/(mol K)]       0.00475022 [mEh/K]
    Rotational Cv           2.981 [cal/(mol K)]       12.472 [J/(mol K)]       0.00475022 [mEh/K]
    Vibrational Cv         38.117 [cal/(mol K)]      159.483 [J/(mol K)]       0.06074379 [mEh/K]
  Total Cv                 44.079 [cal/(mol K)]      184.426 [J/(mol K)]       0.07024424 [mEh/K]
  Correction Cv             0.000 [cal/(mol K)]        0.000 [J/(mol K)]       0.00000000 [mEh/K]

  Constant pressure heat capacity, Cp
    Electronic Cp           0.000 [cal/(mol K)]        0.000 [J/(mol K)]       0.00000000 [mEh/K]
    Translational Cp        4.968 [cal/(mol K)]       20.786 [J/(mol K)]       0.00791704 [mEh/K]
    Rotational Cp           2.981 [cal/(mol K)]       12.472 [J/(mol K)]       0.00475022 [mEh/K]
    Vibrational Cp         38.117 [cal/(mol K)]      159.483 [J/(mol K)]       0.06074379 [mEh/K]
  Total Cp                 46.066 [cal/(mol K)]      192.741 [J/(mol K)]       0.07341105 [mEh/K]
  Correction Cp             0.000 [cal/(mol K)]        0.000 [J/(mol K)]       0.00000000 [mEh/K]

  ==> Thermochemistry Energy Analysis <==

  Raw electronic energy, E0
  Total E0, Electronic energy at well bottom at 0 [K]                -1908.87995652 [Eh]

  Zero-point energy, ZPE_vib = Sum_i nu_i / 2
    Electronic ZPE          0.000 [kcal/mol]        0.000 [kJ/mol]       0.00000000 [Eh]
    Translational ZPE       0.000 [kcal/mol]        0.000 [kJ/mol]       0.00000000 [Eh]
    Rotational ZPE          0.000 [kcal/mol]        0.000 [kJ/mol]       0.00000000 [Eh]
    Vibrational ZPE        81.210 [kcal/mol]      339.782 [kJ/mol]       0.12941605 [Eh]       28403.535 [cm^-1]
  Correction ZPE           81.210 [kcal/mol]      339.782 [kJ/mol]       0.12941605 [Eh]       28403.535 [cm^-1]
  Total ZPE, Electronic energy at 0 [K]                              -1908.75054048 [Eh]

  Thermal Energy, E (includes ZPE)
    Electronic E            0.000 [kcal/mol]        0.000 [kJ/mol]       0.00000000 [Eh]
    Translational E         0.889 [kcal/mol]        3.718 [kJ/mol]       0.00141628 [Eh]
    Rotational E            0.889 [kcal/mol]        3.718 [kJ/mol]       0.00141628 [Eh]
    Vibrational E          87.278 [kcal/mol]      365.171 [kJ/mol]       0.13908618 [Eh]
  Correction E             89.055 [kcal/mol]      372.608 [kJ/mol]       0.14191874 [Eh]
  Total E, Electronic energy at  298.15 [K]                          -1908.73803778 [Eh]

  Enthalpy, H_trans = E_trans + k_B * T
    Electronic H            0.000 [kcal/mol]        0.000 [kJ/mol]       0.00000000 [Eh]
    Translational H         1.481 [kcal/mol]        6.197 [kJ/mol]       0.00236046 [Eh]
    Rotational H            0.889 [kcal/mol]        3.718 [kJ/mol]       0.00141628 [Eh]
    Vibrational H          87.278 [kcal/mol]      365.171 [kJ/mol]       0.13908618 [Eh]
  Correction H             89.648 [kcal/mol]      375.087 [kJ/mol]       0.14286293 [Eh]
  Total H, Enthalpy at  298.15 [K]                                   -1908.73709360 [Eh]

  Gibbs free energy, G = H - T * S
    Electronic G            0.000 [kcal/mol]        0.000 [kJ/mol]       0.00000000 [Eh]
    Translational G       -11.189 [kcal/mol]      -46.814 [kJ/mol]      -0.01783068 [Eh]
    Rotational G           -9.025 [kcal/mol]      -37.760 [kJ/mol]      -0.01438185 [Eh]
    Vibrational G          74.880 [kcal/mol]      313.299 [kJ/mol]       0.11932914 [Eh]
  Correction G             54.667 [kcal/mol]      228.725 [kJ/mol]       0.08711662 [Eh]
  Total G, Free enthalpy at  298.15 [K]                              -1908.79283991 [Eh]

*** Psi4 exiting successfully. Buy a developer a beer!
