                               Psi4 1.2.1 release

  ==> Input File <==

--------------------------------------------------------------------------
memory 110 Gb

molecule conf4 {
C     1.251381144312    -0.560982343778    -0.652103421092
O     1.352066294040     1.793580281435    -0.213139632918
C     0.639643440366     0.649864581174    -0.356214545326
C    -0.739268030756     0.703323156542    -0.277314141143
H    -1.210806435335     1.645380979617    -0.075859343719
O     0.688072646708     3.771544436609     2.067241499874
C    -1.507691025358    -0.430777542410    -0.469251807609
C    -0.889715870976    -1.640542100672    -0.747362388132
C     0.490097263286    -1.696875167758    -0.840996113486
H     0.968595506776    -2.628485188017    -1.069018993790
C     1.981461380985     2.041467346266     1.025914531833
H     2.737931114104     2.783487032826     0.830934835085
H     2.430828119818     1.143965524431     1.424099059375
C     0.986519027973     2.626360810964     2.016458089542
O     0.468909910845     1.701466220296     2.815697585219
H    -0.160749504033     2.117201900833     3.398283382466
CL    -1.791273428645    -3.098046848699    -0.994527592096
CL     2.975546055842    -0.663187813395    -0.815940817115
CL    -3.228498730220    -0.288990401012    -0.352208310254
}
set globals {
  reference rhf
  g_convergence gau_tight
  basis 6-31G(d)
}
frequency('hf', dertype=1)
--------------------------------------------------------------------------

    Molecular point group: c1
  Charge       = 0
  Multiplicity = 1
  Basis Set: 6-31G(D)
    Blend: 6-31G(D)
  Basis Set: (6-31G(D) AUX)
    Blend: CC-PVDZ-JKFIT
  @DF-RHF Final Energy: -1908.87498664855798
    Total Energy =                      -1908.8749866485579787
    Molecular point group: c1
  Basis Set: 6-31G(D)
    Blend: 6-31G(D)
  Basis Set: (6-31G(D) AUX)
    Blend: CC-PVDZ-JKFIT
  Basis Set: 6-31G(D)
    Blend: 6-31G(D)
  Basis Set: (6-31G(D) AUX)
    Blend: CC-PVDZ-JKFIT
  @DF-RHF Final Energy: -1908.87498594867270
    Total Energy =                      -1908.8749859486727019
  Basis Set: 6-31G(D)
    Blend: 6-31G(D)
  Basis Set: (6-31G(D) AUX)
    Blend: CC-PVDZ-JKFIT
  Basis Set: 6-31G(D)
    Blend: 6-31G(D)
  @DF-RHF Final Energy: -1908.87498594794761
    Total Energy =                      -1908.8749859479476072
  @DF-RHF Final Energy: -1908.87498586970901
    Total Energy =                      -1908.8749858697090076
  @DF-RHF Final Energy: -1908.87498587387881
    Total Energy =                      -1908.8749858738788134
  @DF-RHF Final Energy: -1908.87498646075483
    Total Energy =                      -1908.8749864607548261
  @DF-RHF Final Energy: -1908.87498646712424
    Total Energy =                      -1908.8749864671242449
  @DF-RHF Final Energy: -1908.87498640322565
    Total Energy =                      -1908.8749864032256482
  @DF-RHF Final Energy: -1908.87498640476497
    Total Energy =                      -1908.8749864047649680
  @DF-RHF Final Energy: -1908.87498629602987
    Total Energy =                      -1908.8749862960298742
  @DF-RHF Final Energy: -1908.87498629618040
    Total Energy =                      -1908.8749862961803956
  @DF-RHF Final Energy: -1908.87498631714357
    Total Energy =                      -1908.8749863171435663
  @DF-RHF Final Energy: -1908.87498631474136
    Total Energy =                      -1908.8749863147413635
  @DF-RHF Final Energy: -1908.87498583899742
    Total Energy =                      -1908.8749858389974179
  @DF-RHF Final Energy: -1908.87498583871184
    Total Energy =                      -1908.8749858387118365
  @DF-RHF Final Energy: -1908.87498588175663
    Total Energy =                      -1908.8749858817566292
  @DF-RHF Final Energy: -1908.87498588118865
    Total Energy =                      -1908.8749858811886497
  @DF-RHF Final Energy: -1908.87498640773833
    Total Energy =                      -1908.8749864077383336
  @DF-RHF Final Energy: -1908.87498640923286
    Total Energy =                      -1908.8749864092328608
  @DF-RHF Final Energy: -1908.87498584197806
    Total Energy =                      -1908.8749858419780594
  @DF-RHF Final Energy: -1908.87498602911410
    Total Energy =                      -1908.8749860291140976
  @DF-RHF Final Energy: -1908.87498624932709
    Total Energy =                      -1908.8749862493270939
  @DF-RHF Final Energy: -1908.87498625341777
    Total Energy =                      -1908.8749862534177737
  @DF-RHF Final Energy: -1908.87498623429406
    Total Energy =                      -1908.8749862342940560
  @DF-RHF Final Energy: -1908.87498624103796
    Total Energy =                      -1908.8749862410379592
  @DF-RHF Final Energy: -1908.87498636838563
    Total Energy =                      -1908.8749863683856347
  @DF-RHF Final Energy: -1908.87498636669375
    Total Energy =                      -1908.8749863666937472
  @DF-RHF Final Energy: -1908.87498345968720
    Total Energy =                      -1908.8749834596872006
  @DF-RHF Final Energy: -1908.87498344537471
    Total Energy =                      -1908.8749834453747098
  @DF-RHF Final Energy: -1908.87498472548282
    Total Energy =                      -1908.8749847254828182
  @DF-RHF Final Energy: -1908.87498472698076
    Total Energy =                      -1908.8749847269807560
  @DF-RHF Final Energy: -1908.87498383362367
    Total Energy =                      -1908.8749838336236735
  @DF-RHF Final Energy: -1908.87498384596029
    Total Energy =                      -1908.8749838459602870
  @DF-RHF Final Energy: -1908.87498659352991
    Total Energy =                      -1908.8749865935299113
  @DF-RHF Final Energy: -1908.87498659104949
    Total Energy =                      -1908.8749865910494918
  @DF-RHF Final Energy: -1908.87498658960703
    Total Energy =                      -1908.8749865896070332
  @DF-RHF Final Energy: -1908.87498659838343
    Total Energy =                      -1908.8749865983834297
  @DF-RHF Final Energy: -1908.87498654972865
    Total Energy =                      -1908.8749865497286464
  Basis Set: (6-31G(D) AUX)
    Blend: CC-PVDZ-JKFIT
  Basis Set: 6-31G(D)
    Blend: 6-31G(D)
  Basis Set: (6-31G(D) AUX)
    Blend: CC-PVDZ-JKFIT
  @DF-RHF Final Energy: -1908.87498654734077
    Total Energy =                      -1908.8749865473407681
  Basis Set: 6-31G(D)
    Blend: 6-31G(D)
  Basis Set: (6-31G(D) AUX)
    Blend: CC-PVDZ-JKFIT
    Molecular point group: c1
  Charge       = 0
  Multiplicity = 1
  Basis Set: 6-31G(D)
    Blend: 6-31G(D)
  Basis Set: (6-31G(D) AUX)
    Blend: CC-PVDZ-JKFIT

    Orbital Energies [Eh]
    ---------------------

    Doubly Occupied:

       1A   -104.850650     2A   -104.847568     3A   -104.846768
       4A    -20.637211     5A    -20.619770     6A    -20.575263
       7A    -11.402481     8A    -11.338405     9A    -11.336722
      10A    -11.333618    11A    -11.329592    12A    -11.321005
      13A    -11.284063    14A    -11.275495    15A    -10.583696
      16A    -10.580836    17A    -10.579988    18A     -8.053140
      19A     -8.050280    20A     -8.049692    21A     -8.049632
      22A     -8.049435    23A     -8.046749    24A     -8.046726
      25A     -8.045898    26A     -8.045893    27A     -1.500061
      28A     -1.447850    29A     -1.390598    30A     -1.244664
      31A     -1.187700    32A     -1.154615    33A     -1.115296
      34A     -1.054775    35A     -1.021608    36A     -0.983076
      37A     -0.884306    38A     -0.870405    39A     -0.816899
      40A     -0.747690    41A     -0.738654    42A     -0.722419
      43A     -0.704371    44A     -0.692461    45A     -0.677042
      46A     -0.650197    47A     -0.634922    48A     -0.617582
      49A     -0.609784    50A     -0.594954    51A     -0.575873
      52A     -0.564918    53A     -0.548917    54A     -0.530848
      55A     -0.514072    56A     -0.501569    57A     -0.498562
      58A     -0.486061    59A     -0.475824    60A     -0.461136
      61A     -0.457944    62A     -0.452118    63A     -0.366545
      64A     -0.346737

  @DF-RHF Final Energy: -1908.87498664995678

   => Energetics <=

    Nuclear Repulsion Energy =           1194.2677242389788717
    One-Electron Energy =               -5006.2381635575047767
    Two-Electron Energy =                1903.0954526685688961
    Total Energy =                      -1908.8749866499567815

  Dipole Moment: [D]
     X:     1.1053      Y:    -0.8062      Z:     1.7818     Total:     2.2464

    Molecular point group: c1

    Geometry (in Angstrom), charge = 0, multiplicity = 1:

       Center              X                  Y                   Z               Mass
    ------------   -----------------  -----------------  -----------------  -----------------
         C            1.251381144312    -0.560982343778    -0.652103421092    12.000000000000
         O            1.352066294040     1.793580281435    -0.213139632918    15.994914619560
         C            0.639643440366     0.649864581174    -0.356214545326    12.000000000000
         C           -0.739268030756     0.703323156542    -0.277314141143    12.000000000000
         H           -1.210806435335     1.645380979617    -0.075859343719     1.007825032070
         O            0.688072646708     3.771544436609     2.067241499874    15.994914619560
         C           -1.507691025358    -0.430777542410    -0.469251807609    12.000000000000
         C           -0.889715870976    -1.640542100672    -0.747362388132    12.000000000000
         C            0.490097263286    -1.696875167758    -0.840996113486    12.000000000000
         H            0.968595506776    -2.628485188017    -1.069018993790     1.007825032070
         C            1.981461380985     2.041467346266     1.025914531833    12.000000000000
         H            2.737931114104     2.783487032826     0.830934835085     1.007825032070
         H            2.430828119818     1.143965524431     1.424099059375     1.007825032070
         C            0.986519027973     2.626360810964     2.016458089542    12.000000000000
         O            0.468909910845     1.701466220296     2.815697585219    15.994914619560
         H           -0.160749504033     2.117201900833     3.398283382466     1.007825032070
         CL          -1.791273428645    -3.098046848699    -0.994527592096    34.968852682000
         CL           2.975546055842    -0.663187813395    -0.815940817115    34.968852682000
         CL          -3.228498730220    -0.288990401012    -0.352208310254    34.968852682000

  Basis Set: 6-31G(D)
    Blend: 6-31G(D)
  Basis Set: (6-31G(D) AUX)
    Blend: CC-PVDZ-JKFIT

  -Total Gradient:
     Atom            X                  Y                   Z
    ------   -----------------  -----------------  -----------------
       1       -0.000000439164     0.000000089914    -0.000000767012
       2        0.000000099452    -0.000000261810     0.000000287758
       3       -0.000000220741     0.000000568223    -0.000001275992
       4        0.000001000250     0.000000426543     0.000001474100
       5        0.000000051209    -0.000000094793     0.000000119357
       6        0.000001100157    -0.000002679171    -0.000001481151
       7       -0.000000358136    -0.000000316552    -0.000001930316
       8       -0.000001176954     0.000000678779    -0.000001263524
       9        0.000001188585    -0.000000294449     0.000000773574
      10        0.000000080524    -0.000000296006     0.000000149908
      11       -0.000000241850    -0.000000124349     0.000000032731
      12       -0.000000055998    -0.000000018058     0.000000171107
      13       -0.000000294499    -0.000000377868    -0.000000100647
      14       -0.000001183593     0.000006120591     0.000001218336
      15        0.000000015059    -0.000002854519     0.000001098089
      16        0.000000323833     0.000000075835    -0.000000463323
      17        0.000000033323    -0.000000219208     0.000000749063
      18        0.000000245542    -0.000000217451     0.000000382172
      19       -0.000000167003    -0.000000205668     0.000000825787

  Vibration                       1                   8                   9
  Freq [cm^-1]                 49.4243i            30.1924             49.2769
  Irrep                           A                   A                   A
  Reduced mass [u]             12.8223              7.5800              9.4568
  Force const [mDyne/A]        -0.0185              0.0041              0.0135

  Vibration                       10                  11                  12
  Freq [cm^-1]                 73.4032             131.9079            170.7521
  Irrep                           A                   A                   A
  Reduced mass [u]             10.6501              7.4585              9.5396
  Force const [mDyne/A]         0.0338              0.0765              0.1639

  Vibration                       13                  14                  15
  Freq [cm^-1]                 211.7308            224.8235            230.9564
  Irrep                           A                   A                   A
  Reduced mass [u]             18.6361              7.4143             12.3345
  Force const [mDyne/A]         0.4922              0.2208              0.3876

  Vibration                       16                  17                  18
  Freq [cm^-1]                 299.9023            338.9027            352.7935
  Irrep                           A                   A                   A
  Reduced mass [u]              6.9016             11.4011             20.8121
  Force const [mDyne/A]         0.3657              0.7715              1.5262

  Vibration                       19                  20                  21
  Freq [cm^-1]                 406.4992            434.4186            470.0773
  Irrep                           A                   A                   A
  Reduced mass [u]             10.8786              3.0603              5.0614
  Force const [mDyne/A]         1.0591              0.3403              0.6590

  Vibration                       22                  23                  24
  Freq [cm^-1]                 526.0135            571.7462            612.3880
  Irrep                           A                   A                   A
  Reduced mass [u]              3.5940              7.7174              3.1199
  Force const [mDyne/A]         0.5859              1.4864              0.6893

  Vibration                       25                  26                  27
  Freq [cm^-1]                 631.4406            684.2917            727.8062
  Irrep                           A                   A                   A
  Reduced mass [u]              6.5019              1.4842              6.1289
  Force const [mDyne/A]         1.5274              0.4095              1.9128

  Vibration                       28                  29                  30
  Freq [cm^-1]                 740.8878            775.3424            812.1041
  Irrep                           A                   A                   A
  Reduced mass [u]              7.2176              5.5473              4.2944
  Force const [mDyne/A]         2.3343              1.9648              1.6687

  Vibration                       31                  32                  33
  Freq [cm^-1]                 851.3297            982.0445            999.9547
  Irrep                           A                   A                   A
  Reduced mass [u]              4.7729              5.3798              2.9190
  Force const [mDyne/A]         2.0381              3.0569              1.7197

  Vibration                       34                  35                  36
  Freq [cm^-1]                1005.9579           1026.1151           1127.6838
  Irrep                           A                   A                   A
  Reduced mass [u]              2.1034              1.4286              1.9153
  Force const [mDyne/A]         1.2541              0.8862              1.4350

  Vibration                       37                  38                  39
  Freq [cm^-1]                1163.7843           1195.7678           1201.2471
  Irrep                           A                   A                   A
  Reduced mass [u]              7.4168              6.6273              4.8953
  Force const [mDyne/A]         5.9185              5.5832              4.1620

  Vibration                       40                  41                  42
  Freq [cm^-1]                1260.5393           1340.2527           1374.7633
  Irrep                           A                   A                   A
  Reduced mass [u]              2.2890              1.9533              1.8989
  Force const [mDyne/A]         2.1429              2.0673              2.1146

  Vibration                       43                  44                  45
  Freq [cm^-1]                1381.4968           1427.4516           1483.7090
  Irrep                           A                   A                   A
  Reduced mass [u]              1.4429              1.5981              2.4969
  Force const [mDyne/A]         1.6225              1.9186              3.2385

  Vibration                       46                  47                  48
  Freq [cm^-1]                1514.7623           1577.0527           1638.2952
  Irrep                           A                   A                   A
  Reduced mass [u]              3.0409              1.8375              1.3631
  Force const [mDyne/A]         4.1109              2.6926              2.1556

  Vibration                       49                  50                  51
  Freq [cm^-1]                1656.4113           1743.6091           1791.6345
  Irrep                           A                   A                   A
  Reduced mass [u]              2.0273             10.1067              6.5432
  Force const [mDyne/A]         3.2772             18.1034             12.3748

  Vibration                       52                  53                  54
  Freq [cm^-1]                2054.7696           3290.3919           3363.2536
  Irrep                           A                   A                   A
  Reduced mass [u]             10.1519              1.0604              1.1105
  Force const [mDyne/A]        25.2537              6.7640              7.4007

  Vibration                       55                  56                  57
  Freq [cm^-1]                3413.6532           3421.3845           4042.7653
  Irrep                           A                   A                   A
  Reduced mass [u]              1.0940              1.0941              1.0651
  Force const [mDyne/A]         7.5110              7.5458             10.2566

  ==> Thermochemistry Components <==

  Entropy, S
    Electronic S            0.000 [cal/(mol K)]        0.000 [J/(mol K)]       0.00000000 [mEh/K] (multiplicity = 1)
    Translational S        42.496 [cal/(mol K)]      177.803 [J/(mol K)]       0.06772143 [mEh/K] (mol. weight = 253.9304 [u], P = 101325.00 [Pa])
    Rotational S           33.166 [cal/(mol K)]      138.768 [J/(mol K)]       0.05285384 [mEh/K] (symmetry no. = 1)
    Vibrational S          36.299 [cal/(mol K)]      151.875 [J/(mol K)]       0.05784625 [mEh/K]
  Total S                 111.961 [cal/(mol K)]      468.446 [J/(mol K)]       0.17842153 [mEh/K]
  Correction S              0.000 [cal/(mol K)]        0.000 [J/(mol K)]       0.00000000 [mEh/K]

  Constant volume heat capacity, Cv
    Electronic Cv           0.000 [cal/(mol K)]        0.000 [J/(mol K)]       0.00000000 [mEh/K]
    Translational Cv        2.981 [cal/(mol K)]       12.472 [J/(mol K)]       0.00475022 [mEh/K]
    Rotational Cv           2.981 [cal/(mol K)]       12.472 [J/(mol K)]       0.00475022 [mEh/K]
    Vibrational Cv         36.075 [cal/(mol K)]      150.937 [J/(mol K)]       0.05748905 [mEh/K]
  Total Cv                 42.037 [cal/(mol K)]      175.881 [J/(mol K)]       0.06698949 [mEh/K]
  Correction Cv             0.000 [cal/(mol K)]        0.000 [J/(mol K)]       0.00000000 [mEh/K]

  Constant pressure heat capacity, Cp
    Electronic Cp           0.000 [cal/(mol K)]        0.000 [J/(mol K)]       0.00000000 [mEh/K]
    Translational Cp        4.968 [cal/(mol K)]       20.786 [J/(mol K)]       0.00791704 [mEh/K]
    Rotational Cp           2.981 [cal/(mol K)]       12.472 [J/(mol K)]       0.00475022 [mEh/K]
    Vibrational Cp         36.075 [cal/(mol K)]      150.937 [J/(mol K)]       0.05748905 [mEh/K]
  Total Cp                 44.024 [cal/(mol K)]      184.195 [J/(mol K)]       0.07015631 [mEh/K]
  Correction Cp             0.000 [cal/(mol K)]        0.000 [J/(mol K)]       0.00000000 [mEh/K]

  ==> Thermochemistry Energy Analysis <==

  Raw electronic energy, E0
  Total E0, Electronic energy at well bottom at 0 [K]                -1908.87498665 [Eh]

  Zero-point energy, ZPE_vib = Sum_i nu_i / 2
    Electronic ZPE          0.000 [kcal/mol]        0.000 [kJ/mol]       0.00000000 [Eh]
    Translational ZPE       0.000 [kcal/mol]        0.000 [kJ/mol]       0.00000000 [Eh]
    Rotational ZPE          0.000 [kcal/mol]        0.000 [kJ/mol]       0.00000000 [Eh]
    Vibrational ZPE        81.254 [kcal/mol]      339.965 [kJ/mol]       0.12948587 [Eh]       28418.859 [cm^-1]
  Correction ZPE           81.254 [kcal/mol]      339.965 [kJ/mol]       0.12948587 [Eh]       28418.859 [cm^-1]
  Total ZPE, Electronic energy at 0 [K]                              -1908.74550078 [Eh]

  Thermal Energy, E (includes ZPE)
    Electronic E            0.000 [kcal/mol]        0.000 [kJ/mol]       0.00000000 [Eh]
    Translational E         0.889 [kcal/mol]        3.718 [kJ/mol]       0.00141628 [Eh]
    Rotational E            0.889 [kcal/mol]        3.718 [kJ/mol]       0.00141628 [Eh]
    Vibrational E          86.810 [kcal/mol]      363.212 [kJ/mol]       0.13834006 [Eh]
  Correction E             88.587 [kcal/mol]      370.649 [kJ/mol]       0.14117262 [Eh]
  Total E, Electronic energy at  298.15 [K]                          -1908.73381403 [Eh]

  Enthalpy, H_trans = E_trans + k_B * T
    Electronic H            0.000 [kcal/mol]        0.000 [kJ/mol]       0.00000000 [Eh]
    Translational H         1.481 [kcal/mol]        6.197 [kJ/mol]       0.00236046 [Eh]
    Rotational H            0.889 [kcal/mol]        3.718 [kJ/mol]       0.00141628 [Eh]
    Vibrational H          86.810 [kcal/mol]      363.212 [kJ/mol]       0.13834006 [Eh]
  Correction H             89.180 [kcal/mol]      373.128 [kJ/mol]       0.14211681 [Eh]
  Total H, Enthalpy at  298.15 [K]                                   -1908.73286984 [Eh]

  Gibbs free energy, G = H - T * S
    Electronic G            0.000 [kcal/mol]        0.000 [kJ/mol]       0.00000000 [Eh]
    Translational G       -11.189 [kcal/mol]      -46.814 [kJ/mol]      -0.01783068 [Eh]
    Rotational G           -9.000 [kcal/mol]      -37.655 [kJ/mol]      -0.01434209 [Eh]
    Vibrational G          75.987 [kcal/mol]      317.930 [kJ/mol]       0.12109320 [Eh]
  Correction G             55.798 [kcal/mol]      233.461 [kJ/mol]       0.08892043 [Eh]
  Total G, Free enthalpy at  298.15 [K]                              -1908.78606622 [Eh]

*** Psi4 exiting successfully. Buy a developer a beer!
