                               Psi4 1.2.1 release

  ==> Input File <==

--------------------------------------------------------------------------
memory 110 Gb

molecule conf8 {
C     1.224680092236    -0.551914602636    -0.721593459657
O     1.274808226208     1.743915686865    -0.060956905884
C     0.584651490399     0.597678780140    -0.277648071288
C    -0.787274533482     0.582497478757    -0.114536874038
H    -1.283205753805     1.471164408355     0.221796817365
O     0.263936309764     2.175335771007     2.910190624366
C    -1.521500917892    -0.559381938820    -0.383336402389
C    -0.875441271367    -1.705857045675    -0.819874448081
C     0.498660996942    -1.694777449099    -0.987930016515
H     0.998615196383    -2.578204670406    -1.332029984472
C     1.910539867529     1.902819073684     1.191409130665
H     2.818068478217     2.457339301595     1.013173874197
H     2.135607684911     0.949217189067     1.644166116171
C     0.988147609399     2.676382313974     2.115132791600
O     1.056731639452     3.983272933059     1.911305869402
H     0.432427558096     4.415845340202     2.486817510670
CL    -1.734514587046    -3.167326346818    -1.172673833851
CL     2.942798107675    -0.562724331639    -0.961007222578
CL    -3.236528860592    -0.506218468587    -0.160628874344
}
set globals {
  reference rhf
  g_convergence gau_tight
  basis 6-31G(d)
}
frequency('hf', dertype=1)
--------------------------------------------------------------------------

    Molecular point group: c1
  Charge       = 0
  Multiplicity = 1
  Basis Set: 6-31G(D)
    Blend: 6-31G(D)
  Basis Set: (6-31G(D) AUX)
    Blend: CC-PVDZ-JKFIT
  @DF-RHF Final Energy: -1908.87600062622073
    Total Energy =                      -1908.8760006262207298
    Molecular point group: c1
  Basis Set: 6-31G(D)
    Blend: 6-31G(D)
  Basis Set: (6-31G(D) AUX)
    Blend: CC-PVDZ-JKFIT
  Basis Set: 6-31G(D)
    Blend: 6-31G(D)
  Basis Set: (6-31G(D) AUX)
    Blend: CC-PVDZ-JKFIT
  @DF-RHF Final Energy: -1908.87599992957576
    Total Energy =                      -1908.8759999295757552
  Basis Set: 6-31G(D)
    Blend: 6-31G(D)
  Basis Set: (6-31G(D) AUX)
    Blend: CC-PVDZ-JKFIT
  Basis Set: 6-31G(D)
    Blend: 6-31G(D)
  @DF-RHF Final Energy: -1908.87599992547257
    Total Energy =                      -1908.8759999254725699
  @DF-RHF Final Energy: -1908.87599987514295
    Total Energy =                      -1908.8759998751429521
  @DF-RHF Final Energy: -1908.87599986810142
    Total Energy =                      -1908.8759998681014167
  @DF-RHF Final Energy: -1908.87600040123903
    Total Energy =                      -1908.8760004012390255
  @DF-RHF Final Energy: -1908.87600040366556
    Total Energy =                      -1908.8760004036655573
  @DF-RHF Final Energy: -1908.87600039069366
    Total Energy =                      -1908.8760003906936618
  @DF-RHF Final Energy: -1908.87600038934147
    Total Energy =                      -1908.8760003893414705
  @DF-RHF Final Energy: -1908.87600027147460
    Total Energy =                      -1908.8760002714745951
  @DF-RHF Final Energy: -1908.87600026636733
    Total Energy =                      -1908.8760002663673276
  @DF-RHF Final Energy: -1908.87600028756492
    Total Energy =                      -1908.8760002875649207
  @DF-RHF Final Energy: -1908.87600028827410
    Total Energy =                      -1908.8760002882740991
  @DF-RHF Final Energy: -1908.87599981868539
    Total Energy =                      -1908.8759998186853863
  @DF-RHF Final Energy: -1908.87599981487483
    Total Energy =                      -1908.8759998148748309
  @DF-RHF Final Energy: -1908.87599987898557
    Total Energy =                      -1908.8759998789855672
  @DF-RHF Final Energy: -1908.87599988380316
    Total Energy =                      -1908.8759998838031606
  @DF-RHF Final Energy: -1908.87600034679690
    Total Energy =                      -1908.8760003467969000
  @DF-RHF Final Energy: -1908.87600034244588
    Total Energy =                      -1908.8760003424458773
  @DF-RHF Final Energy: -1908.87599981543667
    Total Energy =                      -1908.8759998154366713
  @DF-RHF Final Energy: -1908.87599993354229
    Total Energy =                      -1908.8759999335422890
  @DF-RHF Final Energy: -1908.87600019654701
    Total Energy =                      -1908.8760001965470110
  @DF-RHF Final Energy: -1908.87600019487968
    Total Energy =                      -1908.8760001948796798
  @DF-RHF Final Energy: -1908.87600015227918
    Total Energy =                      -1908.8760001522791754
  @DF-RHF Final Energy: -1908.87600015156022
    Total Energy =                      -1908.8760001515602198
  @DF-RHF Final Energy: -1908.87600022012339
    Total Energy =                      -1908.8760002201233874
  @DF-RHF Final Energy: -1908.87600021707067
    Total Energy =                      -1908.8760002170706684
  @DF-RHF Final Energy: -1908.87599757480075
    Total Energy =                      -1908.8759975748007491
  @DF-RHF Final Energy: -1908.87599756877057
    Total Energy =                      -1908.8759975687705719
  @DF-RHF Final Energy: -1908.87599816713691
    Total Energy =                      -1908.8759981671369133
  @DF-RHF Final Energy: -1908.87599815809062
    Total Energy =                      -1908.8759981580906242
  @DF-RHF Final Energy: -1908.87599832096657
    Total Energy =                      -1908.8759983209665734
  @DF-RHF Final Energy: -1908.87599832314663
    Total Energy =                      -1908.8759983231466322
  @DF-RHF Final Energy: -1908.87600056292172
    Total Energy =                      -1908.8760005629217176
  @DF-RHF Final Energy: -1908.87600056415840
    Total Energy =                      -1908.8760005641584030
  @DF-RHF Final Energy: -1908.87600055960706
    Total Energy =                      -1908.8760005596070641
  @DF-RHF Final Energy: -1908.87600056192605
    Total Energy =                      -1908.8760005619260482
  @DF-RHF Final Energy: -1908.87600052069865
    Total Energy =                      -1908.8760005206986534
  Basis Set: (6-31G(D) AUX)
    Blend: CC-PVDZ-JKFIT
  Basis Set: 6-31G(D)
    Blend: 6-31G(D)
  Basis Set: (6-31G(D) AUX)
    Blend: CC-PVDZ-JKFIT
  @DF-RHF Final Energy: -1908.87600052023595
    Total Energy =                      -1908.8760005202359480
  Basis Set: 6-31G(D)
    Blend: 6-31G(D)
  Basis Set: (6-31G(D) AUX)
    Blend: CC-PVDZ-JKFIT
    Molecular point group: c1
  Charge       = 0
  Multiplicity = 1
  Basis Set: 6-31G(D)
    Blend: 6-31G(D)
  Basis Set: (6-31G(D) AUX)
    Blend: CC-PVDZ-JKFIT

    Orbital Energies [Eh]
    ---------------------

    Doubly Occupied:

       1A   -104.848974     2A   -104.844714     3A   -104.844443
       4A    -20.634937     5A    -20.618694     6A    -20.575839
       7A    -11.402417     8A    -11.336431     9A    -11.334202
      10A    -11.331654    11A    -11.327610    12A    -11.320819
      13A    -11.281950    14A    -11.273461    15A    -10.582008
      16A    -10.577940    17A    -10.577715    18A     -8.051454
      19A     -8.048008    20A     -8.047949    21A     -8.047387
      22A     -8.047163    23A     -8.043850    24A     -8.043845
      25A     -8.043623    26A     -8.043602    27A     -1.499494
      28A     -1.446709    29A     -1.390146    30A     -1.242512
      31A     -1.185708    32A     -1.152250    33A     -1.113071
      34A     -1.054157    35A     -1.020255    36A     -0.980311
      37A     -0.881559    38A     -0.864009    39A     -0.822708
      40A     -0.748208    41A     -0.739973    42A     -0.722659
      43A     -0.701467    44A     -0.686356    45A     -0.674837
      46A     -0.648813    47A     -0.635284    48A     -0.614007
      49A     -0.607580    50A     -0.591933    51A     -0.573687
      52A     -0.566391    53A     -0.548546    54A     -0.528800
      55A     -0.512968    56A     -0.499287    57A     -0.498588
      58A     -0.483934    59A     -0.473477    60A     -0.459142
      61A     -0.457762    62A     -0.449625    63A     -0.364487
      64A     -0.344956

  @DF-RHF Final Energy: -1908.87600062186311

   => Energetics <=

    Nuclear Repulsion Energy =           1185.5427284511004018
    One-Electron Energy =               -4989.0047646269667894
    Two-Electron Energy =                1894.5860355540030469
    Total Energy =                      -1908.8760006218631133

  Dipole Moment: [D]
     X:     1.6801      Y:     1.6860      Z:     0.6904     Total:     2.4783

    Molecular point group: c1

    Geometry (in Angstrom), charge = 0, multiplicity = 1:

       Center              X                  Y                   Z               Mass
    ------------   -----------------  -----------------  -----------------  -----------------
         C            1.224680092236    -0.551914602636    -0.721593459657    12.000000000000
         O            1.274808226208     1.743915686865    -0.060956905884    15.994914619560
         C            0.584651490399     0.597678780140    -0.277648071288    12.000000000000
         C           -0.787274533482     0.582497478757    -0.114536874038    12.000000000000
         H           -1.283205753805     1.471164408355     0.221796817365     1.007825032070
         O            0.263936309764     2.175335771007     2.910190624366    15.994914619560
         C           -1.521500917892    -0.559381938820    -0.383336402389    12.000000000000
         C           -0.875441271367    -1.705857045675    -0.819874448081    12.000000000000
         C            0.498660996942    -1.694777449099    -0.987930016515    12.000000000000
         H            0.998615196383    -2.578204670406    -1.332029984472     1.007825032070
         C            1.910539867529     1.902819073684     1.191409130665    12.000000000000
         H            2.818068478217     2.457339301595     1.013173874197     1.007825032070
         H            2.135607684911     0.949217189067     1.644166116171     1.007825032070
         C            0.988147609399     2.676382313974     2.115132791600    12.000000000000
         O            1.056731639452     3.983272933059     1.911305869402    15.994914619560
         H            0.432427558096     4.415845340202     2.486817510670     1.007825032070
         CL          -1.734514587046    -3.167326346818    -1.172673833851    34.968852682000
         CL           2.942798107675    -0.562724331639    -0.961007222578    34.968852682000
         CL          -3.236528860592    -0.506218468587    -0.160628874344    34.968852682000

  Basis Set: 6-31G(D)
    Blend: 6-31G(D)
  Basis Set: (6-31G(D) AUX)
    Blend: CC-PVDZ-JKFIT

  -Total Gradient:
     Atom            X                  Y                   Z
    ------   -----------------  -----------------  -----------------
       1       -0.000000114673     0.000000917530    -0.000000884826
       2        0.000000468125     0.000000846755     0.000000040505
       3        0.000001661858    -0.000001390175     0.000002591470
       4        0.000000135507     0.000000518408     0.000000362561
       5       -0.000000014754     0.000000137348     0.000000021878
       6       -0.000000356532     0.000001312738    -0.000000044165
       7       -0.000000484253     0.000001417514    -0.000002148514
       8        0.000000667542    -0.000001046935     0.000001376913
       9       -0.000000726215    -0.000000097058    -0.000000298674
      10        0.000000123517    -0.000000082193     0.000000021446
      11       -0.000001862325    -0.000001238206    -0.000001525712
      12        0.000000002952     0.000000057393    -0.000000900774
      13        0.000000125610     0.000000104937     0.000000067294
      14        0.000001071466    -0.000001024180     0.000000151870
      15       -0.000000328664    -0.000000382410     0.000001029175
      16       -0.000000531633     0.000000199112    -0.000000189703
      17       -0.000000124721     0.000000021071    -0.000000146591
      18        0.000000160069     0.000000000443     0.000000067532
      19        0.000000127204    -0.000000272124     0.000000408334

  Vibration                       1                   8                   9
  Freq [cm^-1]                 38.0693i            22.3103             39.6665
  Irrep                           A                   A                   A
  Reduced mass [u]             11.3361              7.3968             11.4160
  Force const [mDyne/A]        -0.0097              0.0022              0.0106

  Vibration                       10                  11                  12
  Freq [cm^-1]                 74.1843             125.3462            164.8211
  Irrep                           A                   A                   A
  Reduced mass [u]             10.4902              7.7812              9.7333
  Force const [mDyne/A]         0.0340              0.0720              0.1558

  Vibration                       13                  14                  15
  Freq [cm^-1]                 212.0832            220.2964            231.8640
  Irrep                           A                   A                   A
  Reduced mass [u]             15.6443              6.8951             16.1825
  Force const [mDyne/A]         0.4146              0.1972              0.5126

  Vibration                       16                  17                  18
  Freq [cm^-1]                 297.0594            335.6415            353.3547
  Irrep                           A                   A                   A
  Reduced mass [u]              6.8288             11.2627             20.9993
  Force const [mDyne/A]         0.3550              0.7476              1.5448

  Vibration                       19                  20                  21
  Freq [cm^-1]                 408.4500            436.1404            470.7651
  Irrep                           A                   A                   A
  Reduced mass [u]             11.2730              3.1299              4.6013
  Force const [mDyne/A]         1.1081              0.3508              0.6008

  Vibration                       22                  23                  24
  Freq [cm^-1]                 524.7206            572.9178            615.9415
  Irrep                           A                   A                   A
  Reduced mass [u]              3.5816              7.5747              3.1418
  Force const [mDyne/A]         0.5810              1.4649              0.7023

  Vibration                       25                  26                  27
  Freq [cm^-1]                 627.6402            675.4391            727.8800
  Irrep                           A                   A                   A
  Reduced mass [u]              5.5031              1.5004              6.8654
  Force const [mDyne/A]         1.2773              0.4033              2.1431

  Vibration                       28                  29                  30
  Freq [cm^-1]                 741.3730            776.2853            814.3191
  Irrep                           A                   A                   A
  Reduced mass [u]              7.0949              5.3690              4.1035
  Force const [mDyne/A]         2.2976              1.9063              1.6032

  Vibration                       31                  32                  33
  Freq [cm^-1]                 856.7467            980.6815            993.6054
  Irrep                           A                   A                   A
  Reduced mass [u]              5.0353              5.0132              1.6661
  Force const [mDyne/A]         2.1776              2.8407              0.9691

  Vibration                       34                  35                  36
  Freq [cm^-1]                1005.3839           1021.3955           1123.9364
  Irrep                           A                   A                   A
  Reduced mass [u]              4.9563              1.4389              2.1439
  Force const [mDyne/A]         2.9517              0.8844              1.5956

  Vibration                       37                  38                  39
  Freq [cm^-1]                1163.5588           1195.9106           1198.6121
  Irrep                           A                   A                   A
  Reduced mass [u]              5.1395              6.4029              5.5525
  Force const [mDyne/A]         4.0996              5.3954              4.7000

  Vibration                       40                  41                  42
  Freq [cm^-1]                1260.8909           1337.6093           1378.1975
  Irrep                           A                   A                   A
  Reduced mass [u]              2.2345              2.0592              1.4212
  Force const [mDyne/A]         2.0931              2.1707              1.5905

  Vibration                       43                  44                  45
  Freq [cm^-1]                1384.6578           1433.2554           1493.2982
  Irrep                           A                   A                   A
  Reduced mass [u]              1.5670              1.8667              2.0666
  Force const [mDyne/A]         1.7701              2.2593              2.7152

  Vibration                       46                  47                  48
  Freq [cm^-1]                1507.8939           1577.1696           1638.9205
  Irrep                           A                   A                   A
  Reduced mass [u]              3.6555              1.9668              1.3719
  Force const [mDyne/A]         4.8971              2.8825              2.1711

  Vibration                       49                  50                  51
  Freq [cm^-1]                1656.6830           1743.3642           1791.5042
  Irrep                           A                   A                   A
  Reduced mass [u]              2.0313             10.1141              6.5295
  Force const [mDyne/A]         3.2848             18.1115             12.3472

  Vibration                       52                  53                  54
  Freq [cm^-1]                2046.1637           3289.2250           3356.7826
  Irrep                           A                   A                   A
  Reduced mass [u]             10.0032              1.0586              1.1129
  Force const [mDyne/A]        24.6757              6.7479              7.3887

  Vibration                       55                  56                  57
  Freq [cm^-1]                3421.3125           3423.0688           4047.1237
  Irrep                           A                   A                   A
  Reduced mass [u]              1.0938              1.0942              1.0651
  Force const [mDyne/A]         7.5435              7.5539             10.2790

  ==> Thermochemistry Components <==

  Entropy, S
    Electronic S            0.000 [cal/(mol K)]        0.000 [J/(mol K)]       0.00000000 [mEh/K] (multiplicity = 1)
    Translational S        42.496 [cal/(mol K)]      177.803 [J/(mol K)]       0.06772143 [mEh/K] (mol. weight = 253.9304 [u], P = 101325.00 [Pa])
    Rotational S           33.251 [cal/(mol K)]      139.122 [J/(mol K)]       0.05298860 [mEh/K] (symmetry no. = 1)
    Vibrational S          37.525 [cal/(mol K)]      157.004 [J/(mol K)]       0.05979951 [mEh/K]
  Total S                 113.271 [cal/(mol K)]      473.928 [J/(mol K)]       0.18050954 [mEh/K]
  Correction S              0.000 [cal/(mol K)]        0.000 [J/(mol K)]       0.00000000 [mEh/K]

  Constant volume heat capacity, Cv
    Electronic Cv           0.000 [cal/(mol K)]        0.000 [J/(mol K)]       0.00000000 [mEh/K]
    Translational Cv        2.981 [cal/(mol K)]       12.472 [J/(mol K)]       0.00475022 [mEh/K]
    Rotational Cv           2.981 [cal/(mol K)]       12.472 [J/(mol K)]       0.00475022 [mEh/K]
    Vibrational Cv         36.118 [cal/(mol K)]      151.116 [J/(mol K)]       0.05755692 [mEh/K]
  Total Cv                 42.079 [cal/(mol K)]      176.059 [J/(mol K)]       0.06705737 [mEh/K]
  Correction Cv             0.000 [cal/(mol K)]        0.000 [J/(mol K)]       0.00000000 [mEh/K]

  Constant pressure heat capacity, Cp
    Electronic Cp           0.000 [cal/(mol K)]        0.000 [J/(mol K)]       0.00000000 [mEh/K]
    Translational Cp        4.968 [cal/(mol K)]       20.786 [J/(mol K)]       0.00791704 [mEh/K]
    Rotational Cp           2.981 [cal/(mol K)]       12.472 [J/(mol K)]       0.00475022 [mEh/K]
    Vibrational Cp         36.118 [cal/(mol K)]      151.116 [J/(mol K)]       0.05755692 [mEh/K]
  Total Cp                 44.066 [cal/(mol K)]      184.374 [J/(mol K)]       0.07022418 [mEh/K]
  Correction Cp             0.000 [cal/(mol K)]        0.000 [J/(mol K)]       0.00000000 [mEh/K]

  ==> Thermochemistry Energy Analysis <==

  Raw electronic energy, E0
  Total E0, Electronic energy at well bottom at 0 [K]                -1908.87600062 [Eh]

  Zero-point energy, ZPE_vib = Sum_i nu_i / 2
    Electronic ZPE          0.000 [kcal/mol]        0.000 [kJ/mol]       0.00000000 [Eh]
    Translational ZPE       0.000 [kcal/mol]        0.000 [kJ/mol]       0.00000000 [Eh]
    Rotational ZPE          0.000 [kcal/mol]        0.000 [kJ/mol]       0.00000000 [Eh]
    Vibrational ZPE        81.193 [kcal/mol]      339.712 [kJ/mol]       0.12938953 [Eh]       28397.716 [cm^-1]
  Correction ZPE           81.193 [kcal/mol]      339.712 [kJ/mol]       0.12938953 [Eh]       28397.716 [cm^-1]
  Total ZPE, Electronic energy at 0 [K]                              -1908.74661109 [Eh]

  Thermal Energy, E (includes ZPE)
    Electronic E            0.000 [kcal/mol]        0.000 [kJ/mol]       0.00000000 [Eh]
    Translational E         0.889 [kcal/mol]        3.718 [kJ/mol]       0.00141628 [Eh]
    Rotational E            0.889 [kcal/mol]        3.718 [kJ/mol]       0.00141628 [Eh]
    Vibrational E          86.793 [kcal/mol]      363.140 [kJ/mol]       0.13831275 [Eh]
  Correction E             88.570 [kcal/mol]      370.577 [kJ/mol]       0.14114531 [Eh]
  Total E, Electronic energy at  298.15 [K]                          -1908.73485531 [Eh]

  Enthalpy, H_trans = E_trans + k_B * T
    Electronic H            0.000 [kcal/mol]        0.000 [kJ/mol]       0.00000000 [Eh]
    Translational H         1.481 [kcal/mol]        6.197 [kJ/mol]       0.00236046 [Eh]
    Rotational H            0.889 [kcal/mol]        3.718 [kJ/mol]       0.00141628 [Eh]
    Vibrational H          86.793 [kcal/mol]      363.140 [kJ/mol]       0.13831275 [Eh]
  Correction H             89.163 [kcal/mol]      373.056 [kJ/mol]       0.14208950 [Eh]
  Total H, Enthalpy at  298.15 [K]                                   -1908.73391113 [Eh]

  Gibbs free energy, G = H - T * S
    Electronic G            0.000 [kcal/mol]        0.000 [kJ/mol]       0.00000000 [Eh]
    Translational G       -11.189 [kcal/mol]      -46.814 [kJ/mol]      -0.01783068 [Eh]
    Rotational G           -9.025 [kcal/mol]      -37.761 [kJ/mol]      -0.01438227 [Eh]
    Vibrational G          75.605 [kcal/mol]      316.330 [kJ/mol]       0.12048353 [Eh]
  Correction G             55.391 [kcal/mol]      231.754 [kJ/mol]       0.08827058 [Eh]
  Total G, Free enthalpy at  298.15 [K]                              -1908.78773005 [Eh]

*** Psi4 exiting successfully. Buy a developer a beer!
