                               Psi4 1.1a2.dev170

  ==> Input File <==

--------------------------------------------------------------------------
memory 20 Gb

molecule conf7 {
0 1
    C           -0.264894886677    -1.264076512584     0.170729619094
    O           -1.181918283125     0.610787393566     1.340050375244
    C           -0.269704270651     0.086704759073     0.487931070280
    C            0.706643416544     0.908659915583    -0.043369926383
    H            0.708256305955     1.948422802953     0.221104023252
    O           -2.712117487494     3.023706298253     2.144748885381
    C            1.678333092736     0.402101927351    -0.887885898850
    C            1.676194445041    -0.948422899036    -1.204815150364
    C            0.704006257824    -1.775731852594    -0.669589612098
    H            0.705800064396    -2.820413085204    -0.909444177101
    C           -2.367366003255     1.109199568166     0.760319623403
    H           -3.001114251367     0.298856168413     0.430416497686
    H           -2.138641917308     1.767703450642    -0.067207582778
    C           -3.044636471298     1.927730870761     1.843620608108
    O           -4.047113565835     1.279663771290     2.416226096506
    H           -4.415165488459     1.831803746964     3.100240611395
    CL           2.863114821289    -1.647076520717    -2.254311768410
    CL          -1.461888685681    -2.327525238574     0.834983515381
    CL           2.871137840182     1.486514039870    -1.516613236941
}
set globals {
  reference rhf
  opt_type ts
  g_convergence gau_tight
  basis 6-31G(d)
}
optimize('scf')
--------------------------------------------------------------------------

    Molecular point group: c1
  Charge       = 0
  Multiplicity = 1
  Basis Set: file /usr/local/software/miniconda2/envs/p4env/share/psi4/basis/6-31g_d_.gbs
  Basis Set: file /usr/local/software/miniconda2/envs/p4env/share/psi4/basis/cc-pvdz-jkfit.gbs

    Orbital Energies (a.u.)
    -----------------------

    Doubly Occupied:

       1A   -104.848743     2A   -104.847312     3A   -104.846908
       4A    -20.633759     5A    -20.617671     6A    -20.571484
       7A    -11.402091     8A    -11.337805     9A    -11.337002
      10A    -11.334130    11A    -11.329193    12A    -11.320631
      13A    -11.284081    14A    -11.275797    15A    -10.581780
      16A    -10.580579    17A    -10.580132    18A     -8.051232
      19A     -8.050024    20A     -8.049578    21A     -8.047760
      22A     -8.047703    23A     -8.046488    24A     -8.046462
      25A     -8.046039    26A     -8.046036    27A     -1.497532
      28A     -1.448187    29A     -1.387859    30A     -1.244717
      31A     -1.187163    32A     -1.154666    33A     -1.114434
      34A     -1.055562    35A     -1.021740    36A     -0.980989
      37A     -0.884195    38A     -0.856483    39A     -0.827066
      40A     -0.748554    41A     -0.740057    42A     -0.718898
      43A     -0.718055    44A     -0.678830    45A     -0.656313
      46A     -0.653477    47A     -0.635600    48A     -0.628100
      49A     -0.609290    50A     -0.592966    51A     -0.577378
      52A     -0.561315    53A     -0.560307    54A     -0.528974
      55A     -0.501258    56A     -0.500954    57A     -0.487864
      58A     -0.481925    59A     -0.474140    60A     -0.461573
      61A     -0.460277    62A     -0.456684    63A     -0.367304
      64A     -0.347178

  @DF-RHF Final Energy: -1908.87559475299031

   => Energetics <=

    Nuclear Repulsion Energy =           1166.9004635971080006
    One-Electron Energy =               -4951.6155510154258081
    Two-Electron Energy =                1875.8394926653277253
    DFT Exchange-Correlation Energy =       0.0000000000000000
    Empirical Dispersion Energy =           0.0000000000000000
    PCM Polarization Energy =               0.0000000000000000
    EFP Energy =                            0.0000000000000000
    Total Energy =                      -1908.8755947529903096
    Molecular point group: c1
  Basis Set: file /usr/local/software/miniconda2/envs/p4env/share/psi4/basis/6-31g_d_.gbs
  Basis Set: file /usr/local/software/miniconda2/envs/p4env/share/psi4/basis/cc-pvdz-jkfit.gbs

  -Total Gradient:
     Atom            X                  Y                   Z
    ------   -----------------  -----------------  -----------------
       1        0.000000715506    -0.000001181629    -0.000000264176
       2        0.000000189404     0.000000420412     0.000000051259
       3       -0.000001383688     0.000000137284     0.000001215997
       4        0.000001094458     0.000000603973    -0.000001335287
       5       -0.000000006417     0.000000284719    -0.000000088186
       6        0.000000702630    -0.000000707408    -0.000000547049
       7        0.000001246147    -0.000000330940     0.000000629664
       8        0.000000446563    -0.000000411236     0.000000714521
       9       -0.000001097870     0.000000673034     0.000000123557
      10        0.000000121318    -0.000000056642    -0.000000217453
      11       -0.000000803352    -0.000000645596     0.000000185444
      12       -0.000000421443    -0.000000302360    -0.000000086849
      13        0.000000328737     0.000000251942     0.000000003761
      14       -0.000000971976     0.000001375957     0.000001273553
      15        0.000000642836    -0.000000650307    -0.000000481993
      16        0.000000167314    -0.000000014682    -0.000000461387
      17       -0.000000459650     0.000000226496    -0.000000247214
      18       -0.000000059337     0.000000177549    -0.000000161856
      19       -0.000000450954     0.000000149528    -0.000000306382

  **** Optimization is complete! (in 1 steps) ****
    Final optimized geometry and variables:
    Molecular point group: c1

    Geometry (in Angstrom), charge = 0, multiplicity = 1:

    C           -0.264894886677    -1.264076512584     0.170729619094
    O           -1.181918283125     0.610787393566     1.340050375244
    C           -0.269704270651     0.086704759073     0.487931070280
    C            0.706643416544     0.908659915583    -0.043369926383
    H            0.708256305955     1.948422802953     0.221104023252
    O           -2.712117487494     3.023706298253     2.144748885381
    C            1.678333092736     0.402101927351    -0.887885898850
    C            1.676194445041    -0.948422899036    -1.204815150364
    C            0.704006257824    -1.775731852594    -0.669589612098
    H            0.705800064396    -2.820413085204    -0.909444177101
    C           -2.367366003255     1.109199568166     0.760319623403
    H           -3.001114251367     0.298856168413     0.430416497686
    H           -2.138641917308     1.767703450642    -0.067207582778
    C           -3.044636471298     1.927730870761     1.843620608108
    O           -4.047113565835     1.279663771290     2.416226096506
    H           -4.415165488459     1.831803746964     3.100240611395
    CL           2.863114821289    -1.647076520717    -2.254311768410
    CL          -1.461888685681    -2.327525238574     0.834983515381
    CL           2.871137840182     1.486514039870    -1.516613236941

*** Psi4 exiting successfully. Buy a developer a beer!
