                               Psi4 1.2.1 release

  ==> Input File <==

--------------------------------------------------------------------------
memory 110 Gb

molecule conf3 {
    C           -0.219916617788    -1.221600510791     0.237671645473
    O           -1.065208929071     0.696193923991     1.393132574347
    C           -0.200960081850     0.138673278275     0.514594485549
    C            0.756452932523     0.933639842593    -0.087479973455
    H            0.782589921267     1.980291611214     0.146024011554
    O           -2.707209949705     2.024163831380     3.066170009571
    C            1.682934736203     0.393482484954    -0.961771392693
    C            1.654806084279    -0.965017896311    -1.238755316184
    C            0.702740960314    -1.766704002991    -0.632571561586
    H            0.685209609892    -2.818186432750    -0.839904015060
    C           -2.286009351916     1.131008082126     0.868227625106
    H           -2.873331997316     0.304623395192     0.486766512468
    H           -2.137255439898     1.839839080118     0.059786120087
    C           -3.069208388154     1.817552429863     1.961957535179
    O           -4.259443092680     2.181102138402     1.491485558632
    H           -4.740005840805     2.618715764890     2.187856605093
    CL           2.784085054598    -1.705369524744    -2.322717909929
    CL          -1.388384096265    -2.256506788629     0.992790198284
    CL           2.852836201602     1.448587224617    -1.677929658604
}
set globals {
  reference rhf
  g_convergence gau_tight
  basis 6-31G(d)
}
frequency('hf', dertype=1)
--------------------------------------------------------------------------

    Molecular point group: c1
  Charge       = 0
  Multiplicity = 1
  Basis Set: 6-31G(D)
    Blend: 6-31G(D)
  Basis Set: (6-31G(D) AUX)
    Blend: CC-PVDZ-JKFIT
  @DF-RHF Final Energy: -1908.87904078308225
    Total Energy =                      -1908.8790407830822460
    Molecular point group: c1
  Basis Set: 6-31G(D)
    Blend: 6-31G(D)
  Basis Set: (6-31G(D) AUX)
    Blend: CC-PVDZ-JKFIT
  Basis Set: 6-31G(D)
    Blend: 6-31G(D)
  Basis Set: (6-31G(D) AUX)
    Blend: CC-PVDZ-JKFIT
  @DF-RHF Final Energy: -1908.87904026699857
    Total Energy =                      -1908.8790402669985724
  Basis Set: 6-31G(D)
    Blend: 6-31G(D)
  Basis Set: (6-31G(D) AUX)
    Blend: CC-PVDZ-JKFIT
  Basis Set: 6-31G(D)
    Blend: 6-31G(D)
  @DF-RHF Final Energy: -1908.87904026407773
    Total Energy =                      -1908.8790402640777302
  @DF-RHF Final Energy: -1908.87904004825009
    Total Energy =                      -1908.8790400482500900
  @DF-RHF Final Energy: -1908.87904004926600
    Total Energy =                      -1908.8790400492659955
  @DF-RHF Final Energy: -1908.87904036928558
    Total Energy =                      -1908.8790403692855762
  @DF-RHF Final Energy: -1908.87904037000021
    Total Energy =                      -1908.8790403700002116
  @DF-RHF Final Energy: -1908.87904031998892
    Total Energy =                      -1908.8790403199889170
  @DF-RHF Final Energy: -1908.87904031766743
    Total Energy =                      -1908.8790403176674317
  @DF-RHF Final Energy: -1908.87904059558150
    Total Energy =                      -1908.8790405955815004
  @DF-RHF Final Energy: -1908.87904059404605
    Total Energy =                      -1908.8790405940460460
  @DF-RHF Final Energy: -1908.87904046905282
    Total Energy =                      -1908.8790404690528248
  @DF-RHF Final Energy: -1908.87904046773133
    Total Energy =                      -1908.8790404677313290
  @DF-RHF Final Energy: -1908.87904016224365
    Total Energy =                      -1908.8790401622436548
  @DF-RHF Final Energy: -1908.87904016562811
    Total Energy =                      -1908.8790401656281119
  @DF-RHF Final Energy: -1908.87904002388063
    Total Energy =                      -1908.8790400238806342
  @DF-RHF Final Energy: -1908.87904002060623
    Total Energy =                      -1908.8790400206062259
  @DF-RHF Final Energy: -1908.87904032129222
    Total Energy =                      -1908.8790403212922229
  @DF-RHF Final Energy: -1908.87904032502479
    Total Energy =                      -1908.8790403250247891
  @DF-RHF Final Energy: -1908.87904021614418
    Total Energy =                      -1908.8790402161441762
  @DF-RHF Final Energy: -1908.87903972520121
    Total Energy =                      -1908.8790397252012099
  @DF-RHF Final Energy: -1908.87904038699367
    Total Energy =                      -1908.8790403869936654
  @DF-RHF Final Energy: -1908.87904038232932
    Total Energy =                      -1908.8790403823293218
  @DF-RHF Final Energy: -1908.87904061062591
    Total Energy =                      -1908.8790406106259070
  @DF-RHF Final Energy: -1908.87904060402730
    Total Energy =                      -1908.8790406040272956
  @DF-RHF Final Energy: -1908.87904004819484
    Total Energy =                      -1908.8790400481948382
  @DF-RHF Final Energy: -1908.87904004863458
    Total Energy =                      -1908.8790400486345789
  @DF-RHF Final Energy: -1908.87903791347458
    Total Energy =                      -1908.8790379134745763
  @DF-RHF Final Energy: -1908.87903790673863
    Total Energy =                      -1908.8790379067386311
  @DF-RHF Final Energy: -1908.87903919361293
    Total Energy =                      -1908.8790391936129254
  @DF-RHF Final Energy: -1908.87903918819643
    Total Energy =                      -1908.8790391881964297
  @DF-RHF Final Energy: -1908.87903743396305
    Total Energy =                      -1908.8790374339630489
  @DF-RHF Final Energy: -1908.87903744735081
    Total Energy =                      -1908.8790374473508109
  @DF-RHF Final Energy: -1908.87904070042441
    Total Energy =                      -1908.8790407004244116
  @DF-RHF Final Energy: -1908.87904070560876
    Total Energy =                      -1908.8790407056087588
  @DF-RHF Final Energy: -1908.87904073980235
    Total Energy =                      -1908.8790407398023490
  @DF-RHF Final Energy: -1908.87904074240032
    Total Energy =                      -1908.8790407424003206
  @DF-RHF Final Energy: -1908.87904067538398
    Total Energy =                      -1908.8790406753839761
  Basis Set: (6-31G(D) AUX)
    Blend: CC-PVDZ-JKFIT
  Basis Set: 6-31G(D)
    Blend: 6-31G(D)
  Basis Set: (6-31G(D) AUX)
    Blend: CC-PVDZ-JKFIT
  @DF-RHF Final Energy: -1908.87904067882300
    Total Energy =                      -1908.8790406788230030
  Basis Set: 6-31G(D)
    Blend: 6-31G(D)
  Basis Set: (6-31G(D) AUX)
    Blend: CC-PVDZ-JKFIT
    Molecular point group: c1
  Charge       = 0
  Multiplicity = 1
  Basis Set: 6-31G(D)
    Blend: 6-31G(D)
  Basis Set: (6-31G(D) AUX)
    Blend: CC-PVDZ-JKFIT

    Orbital Energies [Eh]
    ---------------------

    Doubly Occupied:

       1A   -104.848853     2A   -104.847886     3A   -104.846871
       4A    -20.632487     5A    -20.614547     6A    -20.570799
       7A    -11.401525     8A    -11.337852     9A    -11.337213
      10A    -11.333868    11A    -11.328899    12A    -11.323082
      13A    -11.284108    14A    -11.275940    15A    -10.581892
      16A    -10.581155    17A    -10.580092    18A     -8.051342
      19A     -8.050599    20A     -8.049538    21A     -8.047883
      22A     -8.047813    23A     -8.047066    24A     -8.047043
      25A     -8.046000    26A     -8.045995    27A     -1.496440
      28A     -1.449853    29A     -1.387292    30A     -1.244744
      31A     -1.187156    32A     -1.154799    33A     -1.114755
      34A     -1.057278    35A     -1.023406    36A     -0.983403
      37A     -0.884829    38A     -0.857279    39A     -0.820185
      40A     -0.750234    41A     -0.739950    42A     -0.720160
      43A     -0.706016    44A     -0.687347    45A     -0.674949
      46A     -0.651534    47A     -0.631592    48A     -0.621640
      49A     -0.609403    50A     -0.594586    51A     -0.577430
      52A     -0.563240    53A     -0.556998    54A     -0.529200
      55A     -0.501254    56A     -0.497598    57A     -0.487647
      58A     -0.481629    59A     -0.472293    60A     -0.464661
      61A     -0.460462    62A     -0.457626    63A     -0.367274
      64A     -0.346862

  @DF-RHF Final Energy: -1908.87904078189285

   => Energetics <=

    Nuclear Repulsion Energy =           1165.8327135002261912
    One-Electron Energy =               -4949.4768024525546934
    Two-Electron Energy =                1874.7650481704354206
    Total Energy =                      -1908.8790407818928543

  Dipole Moment: [D]
     X:    -2.5448      Y:     0.7022      Z:    -1.5887     Total:     3.0811

    Molecular point group: c1

    Geometry (in Angstrom), charge = 0, multiplicity = 1:

       Center              X                  Y                   Z               Mass
    ------------   -----------------  -----------------  -----------------  -----------------
         C           -0.219916617788    -1.221600510791     0.237671645473    12.000000000000
         O           -1.065208929071     0.696193923991     1.393132574347    15.994914619560
         C           -0.200960081850     0.138673278275     0.514594485549    12.000000000000
         C            0.756452932523     0.933639842593    -0.087479973455    12.000000000000
         H            0.782589921267     1.980291611214     0.146024011554     1.007825032070
         O           -2.707209949705     2.024163831380     3.066170009571    15.994914619560
         C            1.682934736203     0.393482484954    -0.961771392693    12.000000000000
         C            1.654806084279    -0.965017896311    -1.238755316184    12.000000000000
         C            0.702740960314    -1.766704002991    -0.632571561586    12.000000000000
         H            0.685209609892    -2.818186432750    -0.839904015060     1.007825032070
         C           -2.286009351916     1.131008082126     0.868227625106    12.000000000000
         H           -2.873331997316     0.304623395192     0.486766512468     1.007825032070
         H           -2.137255439898     1.839839080118     0.059786120087     1.007825032070
         C           -3.069208388154     1.817552429863     1.961957535179    12.000000000000
         O           -4.259443092680     2.181102138402     1.491485558632    15.994914619560
         H           -4.740005840805     2.618715764890     2.187856605093     1.007825032070
         CL           2.784085054598    -1.705369524744    -2.322717909929    34.968852682000
         CL          -1.388384096265    -2.256506788629     0.992790198284    34.968852682000
         CL           2.852836201602     1.448587224617    -1.677929658604    34.968852682000

  Basis Set: 6-31G(D)
    Blend: 6-31G(D)
  Basis Set: (6-31G(D) AUX)
    Blend: CC-PVDZ-JKFIT

  -Total Gradient:
     Atom            X                  Y                   Z
    ------   -----------------  -----------------  -----------------
       1        0.000000698165     0.000000317134     0.000000051826
       2        0.000000807230    -0.000000979781     0.000000780409
       3       -0.000001958975     0.000001463747    -0.000001503486
       4       -0.000000625386     0.000000035463    -0.000000629226
       5       -0.000000178265    -0.000000227095    -0.000000225401
       6       -0.000000287457    -0.000000085663    -0.000000734086
       7        0.000002223015    -0.000000648857     0.000002923774
       8        0.000000777014     0.000000123911     0.000000749181
       9       -0.000001044499    -0.000000442449    -0.000000118399
      10        0.000000074811     0.000000148135    -0.000000163531
      11        0.000000521802     0.000001471072    -0.000001701512
      12        0.000000115367    -0.000000362809     0.000000443596
      13       -0.000000189633    -0.000000461601     0.000000245760
      14        0.000000304963    -0.000000274209     0.000001658297
      15        0.000000135855     0.000000203398    -0.000000228177
      16        0.000000077788    -0.000000223435    -0.000000139605
      17       -0.000000591346     0.000000051716    -0.000000602450
      18        0.000000043259    -0.000000296860     0.000000022302
      19       -0.000000903736     0.000000188177    -0.000000829265

  Vibration                       7                   8                   9
  Freq [cm^-1]                 21.1094             37.8795             53.6498
  Irrep                           A                   A                   A
  Reduced mass [u]              9.6358             10.4654             14.2009
  Force const [mDyne/A]         0.0025              0.0088              0.0241

  Vibration                       10                  11                  12
  Freq [cm^-1]                 99.7269             118.8949            176.8261
  Irrep                           A                   A                   A
  Reduced mass [u]              5.9336              3.2347              9.8087
  Force const [mDyne/A]         0.0348              0.0269              0.1807

  Vibration                       13                  14                  15
  Freq [cm^-1]                 192.4030            211.7126            242.3232
  Irrep                           A                   A                   A
  Reduced mass [u]             11.7740             28.7309             10.5109
  Force const [mDyne/A]         0.2568              0.7587              0.3636

  Vibration                       16                  17                  18
  Freq [cm^-1]                 271.6422            300.3357            355.5170
  Irrep                           A                   A                   A
  Reduced mass [u]              7.4385             11.2361             22.3385
  Force const [mDyne/A]         0.3234              0.5971              1.6635

  Vibration                       19                  20                  21
  Freq [cm^-1]                 390.2727            467.5927            491.1262
  Irrep                           A                   A                   A
  Reduced mass [u]             11.8907              8.1485              6.4069
  Force const [mDyne/A]         1.0671              1.0497              0.9105

  Vibration                       22                  23                  24
  Freq [cm^-1]                 530.6341            554.6298            581.3053
  Irrep                           A                   A                   A
  Reduced mass [u]              3.7948              1.5230              6.0213
  Force const [mDyne/A]         0.6295              0.2760              1.1988

  Vibration                       25                  26                  27
  Freq [cm^-1]                 627.2823            691.3919            708.7225
  Irrep                           A                   A                   A
  Reduced mass [u]              6.5087              4.4944              1.8729
  Force const [mDyne/A]         1.5089              1.2658              0.5543

  Vibration                       28                  29                  30
  Freq [cm^-1]                 728.5447            748.3514            794.2605
  Irrep                           A                   A                   A
  Reduced mass [u]              8.2078              7.3137              4.3899
  Force const [mDyne/A]         2.5668              2.4132              1.6316

  Vibration                       31                  32                  33
  Freq [cm^-1]                 836.7083            977.9944           1005.9222
  Irrep                           A                   A                   A
  Reduced mass [u]              6.6310              2.5955              1.6885
  Force const [mDyne/A]         2.7351              1.4626              1.0066

  Vibration                       34                  35                  36
  Freq [cm^-1]                1023.8022           1040.9560           1142.2329
  Irrep                           A                   A                   A
  Reduced mass [u]              1.8023              3.7593              2.1075
  Force const [mDyne/A]         1.1130              2.4001              1.6200

  Vibration                       37                  38                  39
  Freq [cm^-1]                1192.9285           1197.0917           1217.9721
  Irrep                           A                   A                   A
  Reduced mass [u]              5.2652              9.8550              4.7252
  Force const [mDyne/A]         4.4147              8.3207              4.1299

  Vibration                       40                  41                  42
  Freq [cm^-1]                1260.0520           1308.0971           1375.8791
  Irrep                           A                   A                   A
  Reduced mass [u]              2.4462              2.4867              1.2766
  Force const [mDyne/A]         2.2883              2.5070              1.4238

  Vibration                       43                  44                  45
  Freq [cm^-1]                1393.1644           1406.4287           1455.8216
  Irrep                           A                   A                   A
  Reduced mass [u]              1.0804              5.1329              1.6523
  Force const [mDyne/A]         1.2355              5.9821              2.0632

  Vibration                       46                  47                  48
  Freq [cm^-1]                1504.0115           1608.5308           1644.0305
  Irrep                           A                   A                   A
  Reduced mass [u]              7.8971              1.9334              1.1869
  Force const [mDyne/A]        10.5250              2.9474              1.8901

  Vibration                       49                  50                  51
  Freq [cm^-1]                1653.3132           1743.4692           1792.2487
  Irrep                           A                   A                   A
  Reduced mass [u]              2.5353             10.3349              6.4924
  Force const [mDyne/A]         4.0831             18.5091             12.2872

  Vibration                       52                  53                  54
  Freq [cm^-1]                2073.9732           3230.8449           3285.0244
  Irrep                           A                   A                   A
  Reduced mass [u]             10.7823              1.0613              1.1031
  Force const [mDyne/A]        27.3254              6.5272              7.0134

  Vibration                       55                  56                  57
  Freq [cm^-1]                3412.2670           3421.2318           4054.0935
  Irrep                           A                   A                   A
  Reduced mass [u]              1.0937              1.0941              1.0653
  Force const [mDyne/A]         7.5033              7.5452             10.3159

  ==> Thermochemistry Components <==

  Entropy, S
    Electronic S            0.000 [cal/(mol K)]        0.000 [J/(mol K)]       0.00000000 [mEh/K] (multiplicity = 1)
    Translational S        42.496 [cal/(mol K)]      177.803 [J/(mol K)]       0.06772143 [mEh/K] (mol. weight = 253.9304 [u], P = 101325.00 [Pa])
    Rotational S           33.381 [cal/(mol K)]      139.667 [J/(mol K)]       0.05319639 [mEh/K] (symmetry no. = 1)
    Vibrational S          42.339 [cal/(mol K)]      177.147 [J/(mol K)]       0.06747168 [mEh/K]
  Total S                 118.216 [cal/(mol K)]      494.617 [J/(mol K)]       0.18838949 [mEh/K]
  Correction S              0.000 [cal/(mol K)]        0.000 [J/(mol K)]       0.00000000 [mEh/K]

  Constant volume heat capacity, Cv
    Electronic Cv           0.000 [cal/(mol K)]        0.000 [J/(mol K)]       0.00000000 [mEh/K]
    Translational Cv        2.981 [cal/(mol K)]       12.472 [J/(mol K)]       0.00475022 [mEh/K]
    Rotational Cv           2.981 [cal/(mol K)]       12.472 [J/(mol K)]       0.00475022 [mEh/K]
    Vibrational Cv         38.296 [cal/(mol K)]      160.231 [J/(mol K)]       0.06102889 [mEh/K]
  Total Cv                 44.258 [cal/(mol K)]      185.175 [J/(mol K)]       0.07052933 [mEh/K]
  Correction Cv             0.000 [cal/(mol K)]        0.000 [J/(mol K)]       0.00000000 [mEh/K]

  Constant pressure heat capacity, Cp
    Electronic Cp           0.000 [cal/(mol K)]        0.000 [J/(mol K)]       0.00000000 [mEh/K]
    Translational Cp        4.968 [cal/(mol K)]       20.786 [J/(mol K)]       0.00791704 [mEh/K]
    Rotational Cp           2.981 [cal/(mol K)]       12.472 [J/(mol K)]       0.00475022 [mEh/K]
    Vibrational Cp         38.296 [cal/(mol K)]      160.231 [J/(mol K)]       0.06102889 [mEh/K]
  Total Cp                 46.245 [cal/(mol K)]      193.489 [J/(mol K)]       0.07369615 [mEh/K]
  Correction Cp             0.000 [cal/(mol K)]        0.000 [J/(mol K)]       0.00000000 [mEh/K]

  ==> Thermochemistry Energy Analysis <==

  Raw electronic energy, E0
  Total E0, Electronic energy at well bottom at 0 [K]                -1908.87904078 [Eh]

  Zero-point energy, ZPE_vib = Sum_i nu_i / 2
    Electronic ZPE          0.000 [kcal/mol]        0.000 [kJ/mol]       0.00000000 [Eh]
    Translational ZPE       0.000 [kcal/mol]        0.000 [kJ/mol]       0.00000000 [Eh]
    Rotational ZPE          0.000 [kcal/mol]        0.000 [kJ/mol]       0.00000000 [Eh]
    Vibrational ZPE        80.991 [kcal/mol]      338.867 [kJ/mol]       0.12906779 [Eh]       28327.102 [cm^-1]
  Correction ZPE           80.991 [kcal/mol]      338.867 [kJ/mol]       0.12906779 [Eh]       28327.102 [cm^-1]
  Total ZPE, Electronic energy at 0 [K]                              -1908.74997299 [Eh]

  Thermal Energy, E (includes ZPE)
    Electronic E            0.000 [kcal/mol]        0.000 [kJ/mol]       0.00000000 [Eh]
    Translational E         0.889 [kcal/mol]        3.718 [kJ/mol]       0.00141628 [Eh]
    Rotational E            0.889 [kcal/mol]        3.718 [kJ/mol]       0.00141628 [Eh]
    Vibrational E          87.152 [kcal/mol]      364.644 [kJ/mol]       0.13888536 [Eh]
  Correction E             88.929 [kcal/mol]      372.080 [kJ/mol]       0.14171792 [Eh]
  Total E, Electronic energy at  298.15 [K]                          -1908.73732286 [Eh]

  Enthalpy, H_trans = E_trans + k_B * T
    Electronic H            0.000 [kcal/mol]        0.000 [kJ/mol]       0.00000000 [Eh]
    Translational H         1.481 [kcal/mol]        6.197 [kJ/mol]       0.00236046 [Eh]
    Rotational H            0.889 [kcal/mol]        3.718 [kJ/mol]       0.00141628 [Eh]
    Vibrational H          87.152 [kcal/mol]      364.644 [kJ/mol]       0.13888536 [Eh]
  Correction H             89.522 [kcal/mol]      374.559 [kJ/mol]       0.14266211 [Eh]
  Total H, Enthalpy at  298.15 [K]                                   -1908.73637867 [Eh]

  Gibbs free energy, G = H - T * S
    Electronic G            0.000 [kcal/mol]        0.000 [kJ/mol]       0.00000000 [Eh]
    Translational G       -11.189 [kcal/mol]      -46.814 [kJ/mol]      -0.01783068 [Eh]
    Rotational G           -9.064 [kcal/mol]      -37.923 [kJ/mol]      -0.01444422 [Eh]
    Vibrational G          74.528 [kcal/mol]      311.827 [kJ/mol]       0.11876868 [Eh]
  Correction G             54.276 [kcal/mol]      227.089 [kJ/mol]       0.08649378 [Eh]
  Total G, Free enthalpy at  298.15 [K]                              -1908.79254700 [Eh]

*** Psi4 exiting successfully. Buy a developer a beer!
