                               Psi4 1.1a2.dev170

  ==> Input File <==

--------------------------------------------------------------------------
memory 20 Gb

molecule conf6 {
0 1
C         -0.22000       -1.22200        0.23800
O         -1.06500        0.69600        1.39300
C         -0.20100        0.13900        0.51500
C          0.75600        0.93400       -0.08700
H          0.78300        1.98000        0.14600
O         -3.82400        1.31000        2.71500
C          1.68300        0.39300       -0.96200
C          1.65500       -0.96500       -1.23900
C          0.70300       -1.76700       -0.63300
H          0.68500       -2.81800       -0.84000
C         -2.28600        1.13100        0.86800
H         -2.87300        0.30500        0.48700
H         -2.13700        1.84000        0.06000
C         -3.06900        1.81800        1.96200
O         -2.77300        3.11500        1.96900
H         -3.26800        3.53400        2.66700
Cl         2.78400       -1.70500       -2.32300
Cl        -1.38800       -2.25700        0.99300
Cl         2.85300        1.44900       -1.67800
}
set globals {
  reference rhf
  opt_type ts
  g_convergence gau_tight
  basis 6-31G(d)
}
optimize('scf')
--------------------------------------------------------------------------

    Molecular point group: c1
  Charge       = 0
  Multiplicity = 1
  Basis Set: file /usr/local/software/miniconda2/envs/p4env/share/psi4/basis/6-31g_d_.gbs
  Basis Set: file /usr/local/software/miniconda2/envs/p4env/share/psi4/basis/cc-pvdz-jkfit.gbs
  @DF-RHF Final Energy: -1908.87430087729103
    Total Energy =                      -1908.8743008772910343
    Molecular point group: c1
  Basis Set: file /usr/local/software/miniconda2/envs/p4env/share/psi4/basis/6-31g_d_.gbs
  Basis Set: file /usr/local/software/miniconda2/envs/p4env/share/psi4/basis/cc-pvdz-jkfit.gbs
  Basis Set: file /usr/local/software/miniconda2/envs/p4env/share/psi4/basis/6-31g_d_.gbs
  Basis Set: file /usr/local/software/miniconda2/envs/p4env/share/psi4/basis/cc-pvdz-jkfit.gbs
  @DF-RHF Final Energy: -1908.87522459497313
    Total Energy =                      -1908.8752245949731332
  Basis Set: file /usr/local/software/miniconda2/envs/p4env/share/psi4/basis/6-31g_d_.gbs
  Basis Set: file /usr/local/software/miniconda2/envs/p4env/share/psi4/basis/cc-pvdz-jkfit.gbs
  Basis Set: file /usr/local/software/miniconda2/envs/p4env/share/psi4/basis/6-31g_d_.gbs
  Basis Set: file /usr/local/software/miniconda2/envs/p4env/share/psi4/basis/cc-pvdz-jkfit.gbs
  @DF-RHF Final Energy: -1908.87490878845438
    Total Energy =                      -1908.8749087884543769
  Basis Set: file /usr/local/software/miniconda2/envs/p4env/share/psi4/basis/6-31g_d_.gbs
  Basis Set: file /usr/local/software/miniconda2/envs/p4env/share/psi4/basis/cc-pvdz-jkfit.gbs
  Basis Set: file /usr/local/software/miniconda2/envs/p4env/share/psi4/basis/6-31g_d_.gbs
  Basis Set: file /usr/local/software/miniconda2/envs/p4env/share/psi4/basis/cc-pvdz-jkfit.gbs
  @DF-RHF Final Energy: -1908.87486243970261
    Total Energy =                      -1908.8748624397026106
  Basis Set: file /usr/local/software/miniconda2/envs/p4env/share/psi4/basis/6-31g_d_.gbs
  Basis Set: file /usr/local/software/miniconda2/envs/p4env/share/psi4/basis/cc-pvdz-jkfit.gbs
  @DF-RHF Final Energy: -1908.87399951716134
    Total Energy =                      -1908.8739995171613373
  @DF-RHF Final Energy: -1908.87484529815720
    Total Energy =                      -1908.8748452981571972
  @DF-RHF Final Energy: -1908.87489779063844
    Total Energy =                      -1908.8748977906384425
  @DF-RHF Final Energy: -1908.87489780467240
    Total Energy =                      -1908.8748978046724005
  @DF-RHF Final Energy: -1908.87490459433229
    Total Energy =                      -1908.8749045943322926
  @DF-RHF Final Energy: -1908.87490558805735
    Total Energy =                      -1908.8749055880573451
  @DF-RHF Final Energy: -1908.87490604425125
    Total Energy =                      -1908.8749060442512473
  @DF-RHF Final Energy: -1908.87490605777339
    Total Energy =                      -1908.8749060577733871
  @DF-RHF Final Energy: -1908.87490605466337
    Total Energy =                      -1908.8749060546633700
  @DF-RHF Final Energy: -1908.87490606073197
    Total Energy =                      -1908.8749060607319734
  @DF-RHF Final Energy: -1908.87490607176642
    Total Energy =                      -1908.8749060717664179
  @DF-RHF Final Energy: -1908.87490605722633
    Total Energy =                      -1908.8749060572263261
  @DF-RHF Final Energy: -1908.87490606621236
    Total Energy =                      -1908.8749060662123611
  Basis Set: file /usr/local/software/miniconda2/envs/p4env/share/psi4/basis/6-31g_d_.gbs
  Basis Set: file /usr/local/software/miniconda2/envs/p4env/share/psi4/basis/cc-pvdz-jkfit.gbs
  @DF-RHF Final Energy: -1908.87490606966048
    Total Energy =                      -1908.8749060696604829
  Basis Set: file /usr/local/software/miniconda2/envs/p4env/share/psi4/basis/6-31g_d_.gbs
  Basis Set: file /usr/local/software/miniconda2/envs/p4env/share/psi4/basis/cc-pvdz-jkfit.gbs
  Basis Set: file /usr/local/software/miniconda2/envs/p4env/share/psi4/basis/6-31g_d_.gbs
  Basis Set: file /usr/local/software/miniconda2/envs/p4env/share/psi4/basis/cc-pvdz-jkfit.gbs
  @DF-RHF Final Energy: -1908.87490606762094
    Total Energy =                      -1908.8749060676209410
  Basis Set: file /usr/local/software/miniconda2/envs/p4env/share/psi4/basis/6-31g_d_.gbs
  Basis Set: file /usr/local/software/miniconda2/envs/p4env/share/psi4/basis/cc-pvdz-jkfit.gbs
  Basis Set: file /usr/local/software/miniconda2/envs/p4env/share/psi4/basis/6-31g_d_.gbs
  Basis Set: file /usr/local/software/miniconda2/envs/p4env/share/psi4/basis/cc-pvdz-jkfit.gbs
  @DF-RHF Final Energy: -1908.87490606539041
    Total Energy =                      -1908.8749060653904053
  Basis Set: file /usr/local/software/miniconda2/envs/p4env/share/psi4/basis/6-31g_d_.gbs
  Basis Set: file /usr/local/software/miniconda2/envs/p4env/share/psi4/basis/cc-pvdz-jkfit.gbs
  Charge       = 0
  Multiplicity = 1
  Basis Set: file /usr/local/software/miniconda2/envs/p4env/share/psi4/basis/6-31g_d_.gbs
  Basis Set: file /usr/local/software/miniconda2/envs/p4env/share/psi4/basis/cc-pvdz-jkfit.gbs

    Orbital Energies (a.u.)
    -----------------------

    Doubly Occupied:

       1A   -104.848298     2A   -104.847092     3A   -104.846391
       4A    -20.634190     5A    -20.617639     6A    -20.570691
       7A    -11.401535     8A    -11.337807     9A    -11.337392
      10A    -11.334277    11A    -11.328654    12A    -11.320920
      13A    -11.283790    14A    -11.276748    15A    -10.581562
      16A    -10.580316    17A    -10.579425    18A     -8.051006
      19A     -8.049762    20A     -8.048877    21A     -8.047474
      22A     -8.047453    23A     -8.046223    24A     -8.046219
      25A     -8.045387    26A     -8.045316    27A     -1.497121
      28A     -1.448290    29A     -1.387450    30A     -1.244845
      31A     -1.186485    32A     -1.155069    33A     -1.114086
      34A     -1.055394    35A     -1.021822    36A     -0.981207
      37A     -0.884002    38A     -0.857559    39A     -0.825187
      40A     -0.746877    41A     -0.741140    42A     -0.719322
      43A     -0.717920    44A     -0.679395    45A     -0.655807
      46A     -0.651969    47A     -0.633930    48A     -0.630793
      49A     -0.609125    50A     -0.593781    51A     -0.576843
      52A     -0.568326    53A     -0.555935    54A     -0.528327
      55A     -0.501531    56A     -0.498730    57A     -0.487599
      58A     -0.481006    59A     -0.470417    60A     -0.463852
      61A     -0.459435    62A     -0.457206    63A     -0.367518
      64A     -0.346960

  @DF-RHF Final Energy: -1908.87490606948631

   => Energetics <=

    Nuclear Repulsion Energy =           1167.1639081995569995
    One-Electron Energy =               -4952.1642222906211828
    Two-Electron Energy =                1876.1254080215776412
    DFT Exchange-Correlation Energy =       0.0000000000000000
    Empirical Dispersion Energy =           0.0000000000000000
    PCM Polarization Energy =               0.0000000000000000
    EFP Energy =                            0.0000000000000000
    Total Energy =                      -1908.8749060694863147
    Molecular point group: c1
  Basis Set: file /usr/local/software/miniconda2/envs/p4env/share/psi4/basis/6-31g_d_.gbs
  Basis Set: file /usr/local/software/miniconda2/envs/p4env/share/psi4/basis/cc-pvdz-jkfit.gbs

  -Total Gradient:
     Atom            X                  Y                   Z
    ------   -----------------  -----------------  -----------------
       1       -0.000000059173    -0.000000308271     0.000001066516
       2       -0.000000011425    -0.000000072483     0.000000015280
       3        0.000000692829     0.000000079028     0.000000203035
       4       -0.000000446170    -0.000000177350     0.000000147048
       5       -0.000000012110     0.000000301046    -0.000000049907
       6       -0.000000693882    -0.000000283673     0.000000036908
       7        0.000000454353    -0.000000043455     0.000000638708
       8       -0.000000497308     0.000000030030    -0.000000714110
       9        0.000000326396     0.000000170616    -0.000000381425
      10       -0.000000095486    -0.000000179496     0.000000005259
      11       -0.000000193678    -0.000000007808    -0.000000300813
      12       -0.000000160245     0.000000092875     0.000000063279
      13       -0.000000196001     0.000000162391    -0.000000251938
      14        0.000001135983     0.000001393749     0.000000460102
      15       -0.000000592720    -0.000001087741    -0.000000607024
      16        0.000000241016    -0.000000200333     0.000000233824
      17        0.000000271615     0.000000033708    -0.000000009393
      18       -0.000000170824     0.000000062329    -0.000000298794
      19        0.000000006923     0.000000034916    -0.000000256485

  **** Optimization is complete! (in 21 steps) ****
    Final optimized geometry and variables:
    Molecular point group: c1

    Geometry (in Angstrom), charge = 0, multiplicity = 1:

    C           -0.275801439181    -1.218187444686     0.225218180745
    O           -1.091253612687     0.726958033621     1.354639595894
    C           -0.226829935345     0.143603623541     0.490634278571
    C            0.754220083251     0.912438554219    -0.106647296036
    H            0.799733037470     1.960895083855     0.115799701218
    O           -3.599045281549     1.230609404928     2.795017824142
    C            1.678580564739     0.344130966820    -0.965274746697
    C            1.622603159449    -1.015772901875    -1.230589616585
    C            0.645089309323    -1.790499234232    -0.629637388530
    H            0.605942949360    -2.842928337832    -0.829086114090
    C           -2.287901850412     1.219603171765     0.794572034357
    H           -2.878259645135     0.413304865566     0.380991373793
    H           -2.075017365582     1.954498952338     0.030283618770
    C           -3.061762231350     1.846046253567     1.939762326970
    O           -3.071233113258     3.170895731567     1.871037541582
    H           -3.559655117550     3.508770047282     2.616421002930
    CL           2.747696447464    -1.790880657248    -2.294326315746
    CL          -1.477783404150    -2.216747065697     0.972435635967
    CL           2.880338662671     1.366439855086    -1.676476924682

*** Psi4 exiting successfully. Buy a developer a beer!
