                               Psi4 1.2.1 release

  ==> Input File <==

--------------------------------------------------------------------------
memory 110 Gb

molecule conf10 {
    C            0.628820198519    -0.843203156885    -0.913992629829
    O            1.643694725914     0.617171083613     0.597884696229
    C            0.508114458456     0.110915291267     0.100254600365
    C           -0.757270438360     0.470910412826     0.524184630055
    H           -0.894365916239     1.197573330088     1.298198794245
    O            4.006163427778     1.538070069143     1.492990755080
    C           -1.888476812419    -0.102444588959    -0.044634234591
    C           -1.763177333836    -1.043138711388    -1.044844933989
    C           -0.492280971042    -1.406819398322    -1.472831975493
    H           -0.386152381127    -2.137477035360    -2.249997037638
    C            1.597629911095     1.569803884410     1.608036023636
    H            1.112138470434     1.186951390164     2.499542654698
    H            1.071322132583     2.464607342012     1.292773128605
    C            3.012986272935     1.957650709318     1.970788377492
    O            2.979515481710     2.870300721308     2.938130587638
    H            3.874040682745     3.109932768810     3.161583960173
    CL          -3.133652111779    -1.793479236160    -1.792921926502
    CL           2.193439950440    -1.323614820946    -1.475495522786
    CL          -3.435012910170     0.405699740884     0.545677029160
}
set globals {
  reference rhf
  g_convergence gau_tight
  basis 6-31G(d)
}
frequency('hf', dertype=1)
--------------------------------------------------------------------------

    Molecular point group: c1
  Charge       = 0
  Multiplicity = 1
  Basis Set: 6-31G(D)
    Blend: 6-31G(D)
  Basis Set: (6-31G(D) AUX)
    Blend: CC-PVDZ-JKFIT
  @DF-RHF Final Energy: -1908.87923076117409
    Total Energy =                      -1908.8792307611740853
    Molecular point group: c1
  Basis Set: 6-31G(D)
    Blend: 6-31G(D)
  Basis Set: (6-31G(D) AUX)
    Blend: CC-PVDZ-JKFIT
  Basis Set: 6-31G(D)
    Blend: 6-31G(D)
  Basis Set: (6-31G(D) AUX)
    Blend: CC-PVDZ-JKFIT
  @DF-RHF Final Energy: -1908.87923001110676
    Total Energy =                      -1908.8792300111067561
  Basis Set: 6-31G(D)
    Blend: 6-31G(D)
  Basis Set: (6-31G(D) AUX)
    Blend: CC-PVDZ-JKFIT
  Basis Set: 6-31G(D)
    Blend: 6-31G(D)
  @DF-RHF Final Energy: -1908.87922999955936
    Total Energy =                      -1908.8792299995593567
  @DF-RHF Final Energy: -1908.87923030740899
    Total Energy =                      -1908.8792303074089887
  @DF-RHF Final Energy: -1908.87923031520495
    Total Energy =                      -1908.8792303152049499
  @DF-RHF Final Energy: -1908.87923028967634
    Total Energy =                      -1908.8792302896763431
  @DF-RHF Final Energy: -1908.87923028588602
    Total Energy =                      -1908.8792302858860239
  @DF-RHF Final Energy: -1908.87923035951985
    Total Energy =                      -1908.8792303595198518
  @DF-RHF Final Energy: -1908.87923036366647
    Total Energy =                      -1908.8792303636664656
  @DF-RHF Final Energy: -1908.87923045813773
    Total Energy =                      -1908.8792304581377266
  @DF-RHF Final Energy: -1908.87923046697938
    Total Energy =                      -1908.8792304669793793
  @DF-RHF Final Energy: -1908.87923044336367
    Total Energy =                      -1908.8792304433636673
  @DF-RHF Final Energy: -1908.87923044286754
    Total Energy =                      -1908.8792304428675379
  @DF-RHF Final Energy: -1908.87922991064806
    Total Energy =                      -1908.8792299106480641
  @DF-RHF Final Energy: -1908.87922991321784
    Total Energy =                      -1908.8792299132178414
  @DF-RHF Final Energy: -1908.87923027712736
    Total Energy =                      -1908.8792302771273626
  @DF-RHF Final Energy: -1908.87923027347256
    Total Energy =                      -1908.8792302734725581
  @DF-RHF Final Energy: -1908.87923024318297
    Total Energy =                      -1908.8792302431829739
  @DF-RHF Final Energy: -1908.87923024494080
    Total Energy =                      -1908.8792302449407998
  @DF-RHF Final Energy: -1908.87922995586428
    Total Energy =                      -1908.8792299558642753
  @DF-RHF Final Energy: -1908.87923018155834
    Total Energy =                      -1908.8792301815583414
  @DF-RHF Final Energy: -1908.87923001729359
    Total Energy =                      -1908.8792300172935938
  @DF-RHF Final Energy: -1908.87923001529634
    Total Energy =                      -1908.8792300152963435
  @DF-RHF Final Energy: -1908.87923050642348
    Total Energy =                      -1908.8792305064234824
  @DF-RHF Final Energy: -1908.87923049888855
    Total Energy =                      -1908.8792304988885462
  @DF-RHF Final Energy: -1908.87923061776041
    Total Energy =                      -1908.8792306177604132
  @DF-RHF Final Energy: -1908.87923062120126
    Total Energy =                      -1908.8792306212012591
  @DF-RHF Final Energy: -1908.87922441580577
    Total Energy =                      -1908.8792244158057656
  @DF-RHF Final Energy: -1908.87922449014422
    Total Energy =                      -1908.8792244901442245
  @DF-RHF Final Energy: -1908.87922981358111
    Total Energy =                      -1908.8792298135811052
  @DF-RHF Final Energy: -1908.87922980845406
    Total Energy =                      -1908.8792298084540562
  @DF-RHF Final Energy: -1908.87922999420266
    Total Energy =                      -1908.8792299942026602
  @DF-RHF Final Energy: -1908.87922998564954
    Total Energy =                      -1908.8792299856495447
  @DF-RHF Final Energy: -1908.87923068521854
    Total Energy =                      -1908.8792306852185447
  @DF-RHF Final Energy: -1908.87923067863426
    Total Energy =                      -1908.8792306786342579
  @DF-RHF Final Energy: -1908.87923071646060
    Total Energy =                      -1908.8792307164605973
  @DF-RHF Final Energy: -1908.87923071694331
    Total Energy =                      -1908.8792307169433116
  @DF-RHF Final Energy: -1908.87923065282098
    Total Energy =                      -1908.8792306528209792
  Basis Set: (6-31G(D) AUX)
    Blend: CC-PVDZ-JKFIT
  Basis Set: 6-31G(D)
    Blend: 6-31G(D)
  Basis Set: (6-31G(D) AUX)
    Blend: CC-PVDZ-JKFIT
  @DF-RHF Final Energy: -1908.87923065253153
    Total Energy =                      -1908.8792306525315325
  Basis Set: 6-31G(D)
    Blend: 6-31G(D)
  Basis Set: (6-31G(D) AUX)
    Blend: CC-PVDZ-JKFIT
    Molecular point group: c1
  Charge       = 0
  Multiplicity = 1
  Basis Set: 6-31G(D)
    Blend: 6-31G(D)
  Basis Set: (6-31G(D) AUX)
    Blend: CC-PVDZ-JKFIT

    Orbital Energies [Eh]
    ---------------------

    Doubly Occupied:

       1A   -104.847526     2A   -104.842766     3A   -104.836526
       4A    -20.636641     5A    -20.629240     6A    -20.575083
       7A    -11.406427     8A    -11.346938     9A    -11.336648
      10A    -11.331485    11A    -11.325568    12A    -11.321016
      13A    -11.280792    14A    -11.274279    15A    -10.580818
      16A    -10.575922    17A    -10.569546    18A     -8.050254
      19A     -8.046741    20A     -8.046720    21A     -8.045373
      22A     -8.041862    23A     -8.041835    24A     -8.039028
      25A     -8.035480    26A     -8.035431    27A     -1.501425
      28A     -1.465222    29A     -1.392073    30A     -1.241591
      31A     -1.182370    32A     -1.151552    33A     -1.109101
      34A     -1.063091    35A     -1.027355    36A     -0.980744
      37A     -0.894503    38A     -0.846415    39A     -0.826175
      40A     -0.756644    41A     -0.740547    42A     -0.722397
      43A     -0.715127    44A     -0.697481    45A     -0.671308
      46A     -0.647822    47A     -0.646505    48A     -0.615764
      49A     -0.603743    50A     -0.595966    51A     -0.577335
      52A     -0.566798    53A     -0.546935    54A     -0.529990
      55A     -0.510568    56A     -0.501178    57A     -0.495254
      58A     -0.483534    59A     -0.470312    60A     -0.462795
      61A     -0.456382    62A     -0.448731    63A     -0.363873
      64A     -0.333268

  @DF-RHF Final Energy: -1908.87923076105176

   => Energetics <=

    Nuclear Repulsion Energy =           1163.1433424427746104
    One-Electron Energy =               -4944.1615031690025717
    Two-Electron Energy =                1872.1389299651762030
    Total Energy =                      -1908.8792307610517582

  Dipole Moment: [D]
     X:    -0.0763      Y:     2.2948      Z:     2.4322     Total:     3.3448

    Molecular point group: c1

    Geometry (in Angstrom), charge = 0, multiplicity = 1:

       Center              X                  Y                   Z               Mass
    ------------   -----------------  -----------------  -----------------  -----------------
         C            0.628820198519    -0.843203156885    -0.913992629829    12.000000000000
         O            1.643694725914     0.617171083613     0.597884696229    15.994914619560
         C            0.508114458456     0.110915291267     0.100254600365    12.000000000000
         C           -0.757270438360     0.470910412826     0.524184630055    12.000000000000
         H           -0.894365916239     1.197573330088     1.298198794245     1.007825032070
         O            4.006163427778     1.538070069143     1.492990755080    15.994914619560
         C           -1.888476812419    -0.102444588959    -0.044634234591    12.000000000000
         C           -1.763177333836    -1.043138711388    -1.044844933989    12.000000000000
         C           -0.492280971042    -1.406819398322    -1.472831975493    12.000000000000
         H           -0.386152381127    -2.137477035360    -2.249997037638     1.007825032070
         C            1.597629911095     1.569803884410     1.608036023636    12.000000000000
         H            1.112138470434     1.186951390164     2.499542654698     1.007825032070
         H            1.071322132583     2.464607342012     1.292773128605     1.007825032070
         C            3.012986272935     1.957650709318     1.970788377492    12.000000000000
         O            2.979515481710     2.870300721308     2.938130587638    15.994914619560
         H            3.874040682745     3.109932768810     3.161583960173     1.007825032070
         CL          -3.133652111779    -1.793479236160    -1.792921926502    34.968852682000
         CL           2.193439950440    -1.323614820946    -1.475495522786    34.968852682000
         CL          -3.435012910170     0.405699740884     0.545677029160    34.968852682000

  Basis Set: 6-31G(D)
    Blend: 6-31G(D)
  Basis Set: (6-31G(D) AUX)
    Blend: CC-PVDZ-JKFIT

  -Total Gradient:
     Atom            X                  Y                   Z
    ------   -----------------  -----------------  -----------------
       1        0.000002932392    -0.000001377704    -0.000000586721
       2        0.000000161261    -0.000001211540    -0.000000914293
       3       -0.000001999054     0.000001409025    -0.000001831846
       4        0.000001315454    -0.000001160499     0.000000363566
       5       -0.000000603190     0.000000074478     0.000000554556
       6       -0.000001700906     0.000001739004     0.000001031233
       7       -0.000002537810     0.000001488355     0.000000410767
       8        0.000002461218     0.000001413134    -0.000001833607
       9       -0.000001999326    -0.000000103426     0.000001829697
      10        0.000000832925    -0.000000213042    -0.000000255561
      11       -0.000000426350     0.000000122675     0.000001494582
      12        0.000000594166     0.000000597206    -0.000000949107
      13        0.000000365262    -0.000000421512     0.000000134752
      14        0.000001807147    -0.000004061424    -0.000002339443
      15        0.000000007845     0.000002187611     0.000001252598
      16       -0.000000188081    -0.000000067800     0.000000059569
      17       -0.000000632888    -0.000000567531     0.000000458711
      18       -0.000000672609     0.000000564422     0.000000753644
      19        0.000000282633    -0.000000411467     0.000000366994

  Vibration                       7                   8                   9
  Freq [cm^-1]                 28.0927             36.2039             78.6549
  Irrep                           A                   A                   A
  Reduced mass [u]              9.8677             13.6575             11.0708
  Force const [mDyne/A]         0.0046              0.0105              0.0404

  Vibration                       10                  11                  12
  Freq [cm^-1]                 90.2046             134.5892            167.8474
  Irrep                           A                   A                   A
  Reduced mass [u]             13.4300              2.5807              8.9185
  Force const [mDyne/A]         0.0644              0.0275              0.1480

  Vibration                       13                  14                  15
  Freq [cm^-1]                 194.0187            207.8768            233.1659
  Irrep                           A                   A                   A
  Reduced mass [u]             14.7570             23.3035             14.2354
  Force const [mDyne/A]         0.3273              0.5933              0.4560

  Vibration                       16                  17                  18
  Freq [cm^-1]                 261.3939            286.2627            361.6604
  Irrep                           A                   A                   A
  Reduced mass [u]              5.8709             12.7925             26.1252
  Force const [mDyne/A]         0.2363              0.6176              2.0133

  Vibration                       19                  20                  21
  Freq [cm^-1]                 417.5855            461.7374            483.4097
  Irrep                           A                   A                   A
  Reduced mass [u]             11.4594              8.5427             11.3439
  Force const [mDyne/A]         1.1773              1.0731              1.5619

  Vibration                       22                  23                  24
  Freq [cm^-1]                 504.7322            567.5398            589.1836
  Irrep                           A                   A                   A
  Reduced mass [u]              3.0436              1.3763              8.8707
  Force const [mDyne/A]         0.4568              0.2612              1.8143

  Vibration                       25                  26                  27
  Freq [cm^-1]                 644.2941            697.0299            710.5396
  Irrep                           A                   A                   A
  Reduced mass [u]              5.2816              5.2392              2.5174
  Force const [mDyne/A]         1.2918              1.4997              0.7488

  Vibration                       28                  29                  30
  Freq [cm^-1]                 718.8783            749.9678            783.2721
  Irrep                           A                   A                   A
  Reduced mass [u]              4.0637              7.7641              3.7854
  Force const [mDyne/A]         1.2373              2.5729              1.3683

  Vibration                       31                  32                  33
  Freq [cm^-1]                 838.7204            967.7707            985.5939
  Irrep                           A                   A                   A
  Reduced mass [u]              7.9375              1.5110              3.4097
  Force const [mDyne/A]         3.2898              0.8338              1.9515

  Vibration                       34                  35                  36
  Freq [cm^-1]                1027.1759           1035.6423           1152.5054
  Irrep                           A                   A                   A
  Reduced mass [u]              1.3893              8.4824              2.0183
  Force const [mDyne/A]         0.8637              5.3603              1.5795

  Vibration                       37                  38                  39
  Freq [cm^-1]                1191.6089           1204.8958           1240.2938
  Irrep                           A                   A                   A
  Reduced mass [u]              7.2308              7.1423              3.4453
  Force const [mDyne/A]         6.0493              6.1093              3.1227

  Vibration                       40                  41                  42
  Freq [cm^-1]                1281.0307           1309.0617           1397.6284
  Irrep                           A                   A                   A
  Reduced mass [u]              2.8381              2.6564              1.2939
  Force const [mDyne/A]         2.7440              2.6820              1.4891

  Vibration                       43                  44                  45
  Freq [cm^-1]                1400.8903           1434.5498           1457.9516
  Irrep                           A                   A                   A
  Reduced mass [u]              1.0804              4.9240              1.6763
  Force const [mDyne/A]         1.2493              5.9703              2.0994

  Vibration                       46                  47                  48
  Freq [cm^-1]                1505.9556           1611.4856           1644.3598
  Irrep                           A                   A                   A
  Reduced mass [u]              7.6679              1.8881              1.1840
  Force const [mDyne/A]        10.2460              2.8888              1.8862

  Vibration                       49                  50                  51
  Freq [cm^-1]                1668.6382           1751.6609           1791.1046
  Irrep                           A                   A                   A
  Reduced mass [u]              2.5381             10.0451              6.1781
  Force const [mDyne/A]         4.1638             18.1596             11.6773

  Vibration                       52                  53                  54
  Freq [cm^-1]                2078.9609           3225.2167           3272.5361
  Irrep                           A                   A                   A
  Reduced mass [u]             10.8360              1.0574              1.1072
  Force const [mDyne/A]        27.5937              6.4802              6.9863

  Vibration                       55                  56                  57
  Freq [cm^-1]                3420.4491           3430.7454           4053.6708
  Irrep                           A                   A                   A
  Reduced mass [u]              1.0939              1.0922              1.0653
  Force const [mDyne/A]         7.5405              7.5739             10.3140

  ==> Thermochemistry Components <==

  Entropy, S
    Electronic S            0.000 [cal/(mol K)]        0.000 [J/(mol K)]       0.00000000 [mEh/K] (multiplicity = 1)
    Translational S        42.496 [cal/(mol K)]      177.803 [J/(mol K)]       0.06772143 [mEh/K] (mol. weight = 253.9304 [u], P = 101325.00 [Pa])
    Rotational S           33.438 [cal/(mol K)]      139.903 [J/(mol K)]       0.05328632 [mEh/K] (symmetry no. = 1)
    Vibrational S          41.309 [cal/(mol K)]      172.837 [J/(mol K)]       0.06583026 [mEh/K]
  Total S                 117.243 [cal/(mol K)]      490.543 [J/(mol K)]       0.18683800 [mEh/K]
  Correction S              0.000 [cal/(mol K)]        0.000 [J/(mol K)]       0.00000000 [mEh/K]

  Constant volume heat capacity, Cv
    Electronic Cv           0.000 [cal/(mol K)]        0.000 [J/(mol K)]       0.00000000 [mEh/K]
    Translational Cv        2.981 [cal/(mol K)]       12.472 [J/(mol K)]       0.00475022 [mEh/K]
    Rotational Cv           2.981 [cal/(mol K)]       12.472 [J/(mol K)]       0.00475022 [mEh/K]
    Vibrational Cv         38.274 [cal/(mol K)]      160.137 [J/(mol K)]       0.06099288 [mEh/K]
  Total Cv                 44.235 [cal/(mol K)]      185.080 [J/(mol K)]       0.07049332 [mEh/K]
  Correction Cv             0.000 [cal/(mol K)]        0.000 [J/(mol K)]       0.00000000 [mEh/K]

  Constant pressure heat capacity, Cp
    Electronic Cp           0.000 [cal/(mol K)]        0.000 [J/(mol K)]       0.00000000 [mEh/K]
    Translational Cp        4.968 [cal/(mol K)]       20.786 [J/(mol K)]       0.00791704 [mEh/K]
    Rotational Cp           2.981 [cal/(mol K)]       12.472 [J/(mol K)]       0.00475022 [mEh/K]
    Vibrational Cp         38.274 [cal/(mol K)]      160.137 [J/(mol K)]       0.06099288 [mEh/K]
  Total Cp                 46.222 [cal/(mol K)]      193.395 [J/(mol K)]       0.07366014 [mEh/K]
  Correction Cp             0.000 [cal/(mol K)]        0.000 [J/(mol K)]       0.00000000 [mEh/K]

  ==> Thermochemistry Energy Analysis <==

  Raw electronic energy, E0
  Total E0, Electronic energy at well bottom at 0 [K]                -1908.87923076 [Eh]

  Zero-point energy, ZPE_vib = Sum_i nu_i / 2
    Electronic ZPE          0.000 [kcal/mol]        0.000 [kJ/mol]       0.00000000 [Eh]
    Translational ZPE       0.000 [kcal/mol]        0.000 [kJ/mol]       0.00000000 [Eh]
    Rotational ZPE          0.000 [kcal/mol]        0.000 [kJ/mol]       0.00000000 [Eh]
    Vibrational ZPE        81.183 [kcal/mol]      339.669 [kJ/mol]       0.12937311 [Eh]       28394.112 [cm^-1]
  Correction ZPE           81.183 [kcal/mol]      339.669 [kJ/mol]       0.12937311 [Eh]       28394.112 [cm^-1]
  Total ZPE, Electronic energy at 0 [K]                              -1908.74985765 [Eh]

  Thermal Energy, E (includes ZPE)
    Electronic E            0.000 [kcal/mol]        0.000 [kJ/mol]       0.00000000 [Eh]
    Translational E         0.889 [kcal/mol]        3.718 [kJ/mol]       0.00141628 [Eh]
    Rotational E            0.889 [kcal/mol]        3.718 [kJ/mol]       0.00141628 [Eh]
    Vibrational E          87.323 [kcal/mol]      365.359 [kJ/mol]       0.13915791 [Eh]
  Correction E             89.100 [kcal/mol]      372.796 [kJ/mol]       0.14199046 [Eh]
  Total E, Electronic energy at  298.15 [K]                          -1908.73724030 [Eh]

  Enthalpy, H_trans = E_trans + k_B * T
    Electronic H            0.000 [kcal/mol]        0.000 [kJ/mol]       0.00000000 [Eh]
    Translational H         1.481 [kcal/mol]        6.197 [kJ/mol]       0.00236046 [Eh]
    Rotational H            0.889 [kcal/mol]        3.718 [kJ/mol]       0.00141628 [Eh]
    Vibrational H          87.323 [kcal/mol]      365.359 [kJ/mol]       0.13915791 [Eh]
  Correction H             89.693 [kcal/mol]      375.275 [kJ/mol]       0.14293465 [Eh]
  Total H, Enthalpy at  298.15 [K]                                   -1908.73629611 [Eh]

  Gibbs free energy, G = H - T * S
    Electronic G            0.000 [kcal/mol]        0.000 [kJ/mol]       0.00000000 [Eh]
    Translational G       -11.189 [kcal/mol]      -46.814 [kJ/mol]      -0.01783068 [Eh]
    Rotational G           -9.081 [kcal/mol]      -37.994 [kJ/mol]      -0.01447104 [Eh]
    Vibrational G          75.007 [kcal/mol]      313.828 [kJ/mol]       0.11953062 [Eh]
  Correction G             54.737 [kcal/mol]      229.019 [kJ/mol]       0.08722890 [Eh]
  Total G, Free enthalpy at  298.15 [K]                              -1908.79200186 [Eh]

*** Psi4 exiting successfully. Buy a developer a beer!
