                               Psi4 1.1a2.dev170

  ==> Input File <==

--------------------------------------------------------------------------
memory 20 Gb

molecule conf5 {
0 1
C         -0.22000       -1.22200        0.23800
O         -1.06500        0.69600        1.39300
C         -0.20100        0.13900        0.51500
C          0.75600        0.93400       -0.08700
H          0.78300        1.98000        0.14600
O         -4.14500        2.29400        1.86700
C          1.68300        0.39300       -0.96200
C          1.65500       -0.96500       -1.23900
C          0.70300       -1.76700       -0.63300
H          0.68500       -2.81800       -0.84000
C         -2.28600        1.13100        0.86800
H         -2.87300        0.30500        0.48700
H         -2.13700        1.84000        0.06000
C         -3.06900        1.81800        1.96200
O         -2.36200        1.80000        3.08900
H         -2.87000        2.22900        3.77200
Cl         2.78400       -1.70500       -2.32300
Cl        -1.38800       -2.25700        0.99300
Cl         2.85300        1.44900       -1.67800
}
set globals {
  reference rhf
  g_convergence gau_tight
  basis 6-31G(d)
}
optimize('scf')
--------------------------------------------------------------------------

    Molecular point group: c1
  Charge       = 0
  Multiplicity = 1
  Basis Set: file /usr/local/software/miniconda2/envs/p4env/share/psi4/basis/6-31g_d_.gbs
  Basis Set: file /usr/local/software/miniconda2/envs/p4env/share/psi4/basis/cc-pvdz-jkfit.gbs
  @DF-RHF Final Energy: -1908.87524370071674
    Total Energy =                      -1908.8752437007167373
    Molecular point group: c1
  Basis Set: file /usr/local/software/miniconda2/envs/p4env/share/psi4/basis/6-31g_d_.gbs
  Basis Set: file /usr/local/software/miniconda2/envs/p4env/share/psi4/basis/cc-pvdz-jkfit.gbs
  Basis Set: file /usr/local/software/miniconda2/envs/p4env/share/psi4/basis/6-31g_d_.gbs
  Basis Set: file /usr/local/software/miniconda2/envs/p4env/share/psi4/basis/cc-pvdz-jkfit.gbs
  @DF-RHF Final Energy: -1908.87737483795627
    Total Energy =                      -1908.8773748379562676
  Basis Set: file /usr/local/software/miniconda2/envs/p4env/share/psi4/basis/6-31g_d_.gbs
  Basis Set: file /usr/local/software/miniconda2/envs/p4env/share/psi4/basis/cc-pvdz-jkfit.gbs
  Basis Set: file /usr/local/software/miniconda2/envs/p4env/share/psi4/basis/6-31g_d_.gbs
  Basis Set: file /usr/local/software/miniconda2/envs/p4env/share/psi4/basis/cc-pvdz-jkfit.gbs
  @DF-RHF Final Energy: -1908.87544700045282
    Total Energy =                      -1908.8754470004528230
  Basis Set: file /usr/local/software/miniconda2/envs/p4env/share/psi4/basis/6-31g_d_.gbs
  Basis Set: file /usr/local/software/miniconda2/envs/p4env/share/psi4/basis/cc-pvdz-jkfit.gbs
  Basis Set: file /usr/local/software/miniconda2/envs/p4env/share/psi4/basis/6-31g_d_.gbs
  Basis Set: file /usr/local/software/miniconda2/envs/p4env/share/psi4/basis/cc-pvdz-jkfit.gbs
  @DF-RHF Final Energy: -1908.87823612359739
    Total Energy =                      -1908.8782361235973895
  Basis Set: file /usr/local/software/miniconda2/envs/p4env/share/psi4/basis/6-31g_d_.gbs
  Basis Set: file /usr/local/software/miniconda2/envs/p4env/share/psi4/basis/cc-pvdz-jkfit.gbs
  @DF-RHF Final Energy: -1908.87835170552125
    Total Energy =                      -1908.8783517055212542
  @DF-RHF Final Energy: -1908.87835730878328
    Total Energy =                      -1908.8783573087832792
  @DF-RHF Final Energy: -1908.87835926697153
    Total Energy =                      -1908.8783592669715290
  @DF-RHF Final Energy: -1908.87836116641620
    Total Energy =                      -1908.8783611664161981
  @DF-RHF Final Energy: -1908.87836308756846
    Total Energy =                      -1908.8783630875684594
  @DF-RHF Final Energy: -1908.87836842998581
    Total Energy =                      -1908.8783684299858123
  @DF-RHF Final Energy: -1908.87837240045133
    Total Energy =                      -1908.8783724004513260
  @DF-RHF Final Energy: -1908.87837515603746
    Total Energy =                      -1908.8783751560374640
  @DF-RHF Final Energy: -1908.87837861200865
    Total Energy =                      -1908.8783786120086461
  @DF-RHF Final Energy: -1908.87838178547190
    Total Energy =                      -1908.8783817854719018
  @DF-RHF Final Energy: -1908.87838431829027
    Total Energy =                      -1908.8783843182902729
  @DF-RHF Final Energy: -1908.87838532161732
    Total Energy =                      -1908.8783853216173156
  @DF-RHF Final Energy: -1908.87838543768976
    Total Energy =                      -1908.8783854376897580
  @DF-RHF Final Energy: -1908.87838578764513
    Total Energy =                      -1908.8783857876451293
  @DF-RHF Final Energy: -1908.87838586426096
    Total Energy =                      -1908.8783858642609630
  @DF-RHF Final Energy: -1908.87838595264179
    Total Energy =                      -1908.8783859526417928
  @DF-RHF Final Energy: -1908.87838669663415
    Total Energy =                      -1908.8783866966341520
  @DF-RHF Final Energy: -1908.87838676022261
    Total Energy =                      -1908.8783867602226110
  @DF-RHF Final Energy: -1908.87838681353469
    Total Energy =                      -1908.8783868135346893
  @DF-RHF Final Energy: -1908.87838686266423
    Total Energy =                      -1908.8783868626642288
  @DF-RHF Final Energy: -1908.87838691279171
    Total Energy =                      -1908.8783869127917114
  @DF-RHF Final Energy: -1908.87838696055383
    Total Energy =                      -1908.8783869605538257
  @DF-RHF Final Energy: -1908.87838700874886
    Total Energy =                      -1908.8783870087488594
  @DF-RHF Final Energy: -1908.87838705047807
    Total Energy =                      -1908.8783870504780680
  @DF-RHF Final Energy: -1908.87838709185257
    Total Energy =                      -1908.8783870918525736
  @DF-RHF Final Energy: -1908.87838712980783
    Total Energy =                      -1908.8783871298078338
  @DF-RHF Final Energy: -1908.87838716784267
    Total Energy =                      -1908.8783871678426749
  @DF-RHF Final Energy: -1908.87838720911577
    Total Energy =                      -1908.8783872091157718
  @DF-RHF Final Energy: -1908.87838724298399
    Total Energy =                      -1908.8783872429839903
  @DF-RHF Final Energy: -1908.87838726839209
    Total Energy =                      -1908.8783872683920890
  @DF-RHF Final Energy: -1908.87838730415524
    Total Energy =                      -1908.8783873041552397
  @DF-RHF Final Energy: -1908.87838731962688
    Total Energy =                      -1908.8783873196268814
  Basis Set: file /usr/local/software/miniconda2/envs/p4env/share/psi4/basis/6-31g_d_.gbs
  Basis Set: file /usr/local/software/miniconda2/envs/p4env/share/psi4/basis/cc-pvdz-jkfit.gbs
  @DF-RHF Final Energy: -1908.87838735578521
    Total Energy =                      -1908.8783873557852075
  Basis Set: file /usr/local/software/miniconda2/envs/p4env/share/psi4/basis/6-31g_d_.gbs
  Basis Set: file /usr/local/software/miniconda2/envs/p4env/share/psi4/basis/cc-pvdz-jkfit.gbs
  Basis Set: file /usr/local/software/miniconda2/envs/p4env/share/psi4/basis/6-31g_d_.gbs
  Basis Set: file /usr/local/software/miniconda2/envs/p4env/share/psi4/basis/cc-pvdz-jkfit.gbs
  @DF-RHF Final Energy: -1908.87838737498782
    Total Energy =                      -1908.8783873749878239
  Basis Set: file /usr/local/software/miniconda2/envs/p4env/share/psi4/basis/6-31g_d_.gbs
  Basis Set: file /usr/local/software/miniconda2/envs/p4env/share/psi4/basis/cc-pvdz-jkfit.gbs
  Basis Set: file /usr/local/software/miniconda2/envs/p4env/share/psi4/basis/6-31g_d_.gbs
  Basis Set: file /usr/local/software/miniconda2/envs/p4env/share/psi4/basis/cc-pvdz-jkfit.gbs
  @DF-RHF Final Energy: -1908.87838738162418
    Total Energy =                      -1908.8783873816241794
  Basis Set: file /usr/local/software/miniconda2/envs/p4env/share/psi4/basis/6-31g_d_.gbs
  Basis Set: file /usr/local/software/miniconda2/envs/p4env/share/psi4/basis/cc-pvdz-jkfit.gbs
  Charge       = 0
  Multiplicity = 1
  Basis Set: file /usr/local/software/miniconda2/envs/p4env/share/psi4/basis/6-31g_d_.gbs
  Basis Set: file /usr/local/software/miniconda2/envs/p4env/share/psi4/basis/cc-pvdz-jkfit.gbs

    Orbital Energies (a.u.)
    -----------------------

    Doubly Occupied:

       1A   -104.849877     2A   -104.849069     3A   -104.847854
       4A    -20.631833     5A    -20.616461     6A    -20.567992
       7A    -11.403180     8A    -11.339268     9A    -11.338486
      10A    -11.335111    11A    -11.330161    12A    -11.323028
      13A    -11.285266    14A    -11.277525    15A    -10.582913
      16A    -10.582337    17A    -10.581076    18A     -8.052362
      19A     -8.051781    20A     -8.050522    21A     -8.048895
      22A     -8.048836    23A     -8.048247    24A     -8.048224
      25A     -8.046981    26A     -8.046977    27A     -1.498135
      28A     -1.449738    29A     -1.386528    30A     -1.245994
      31A     -1.188351    32A     -1.155952    33A     -1.115873
      34A     -1.056862    35A     -1.022894    36A     -0.981729
      37A     -0.884806    38A     -0.858333    39A     -0.830899
      40A     -0.746382    41A     -0.740947    42A     -0.725105
      43A     -0.708247    44A     -0.684487    45A     -0.675877
      46A     -0.650681    47A     -0.625440    48A     -0.622392
      49A     -0.610493    50A     -0.592112    51A     -0.577590
      52A     -0.567774    53A     -0.559086    54A     -0.530309
      55A     -0.502611    56A     -0.502006    57A     -0.487881
      58A     -0.478562    59A     -0.471501    60A     -0.466470
      61A     -0.460694    62A     -0.458601    63A     -0.368594
      64A     -0.348125

  @DF-RHF Final Energy: -1908.87838740236020

   => Energetics <=

    Nuclear Repulsion Energy =           1167.2816735647329551
    One-Electron Energy =               -4952.2754684834435466
    Two-Electron Energy =                1876.1154075163503876
    DFT Exchange-Correlation Energy =       0.0000000000000000
    Empirical Dispersion Energy =           0.0000000000000000
    PCM Polarization Energy =               0.0000000000000000
    EFP Energy =                            0.0000000000000000
    Total Energy =                      -1908.8783874023602039
    Molecular point group: c1
  Basis Set: file /usr/local/software/miniconda2/envs/p4env/share/psi4/basis/6-31g_d_.gbs
  Basis Set: file /usr/local/software/miniconda2/envs/p4env/share/psi4/basis/cc-pvdz-jkfit.gbs

  -Total Gradient:
     Atom            X                  Y                   Z
    ------   -----------------  -----------------  -----------------
       1       -0.000000746545    -0.000000581162     0.000000647472
       2        0.000001248871     0.000002279517    -0.000000697901
       3       -0.000001012347    -0.000000583521     0.000000495348
       4        0.000000494751     0.000000532460    -0.000000151872
       5        0.000000094152     0.000000689249     0.000000145036
       6        0.000000258696     0.000002561530    -0.000001481628
       7        0.000000893795     0.000000489413    -0.000000498895
       8        0.000000349045    -0.000000275931    -0.000000434168
       9       -0.000000097257     0.000000041356    -0.000000090376
      10       -0.000000092502    -0.000001047591    -0.000000142926
      11        0.000000279434     0.000000091958     0.000000724454
      12        0.000000554516    -0.000001374020     0.000000918088
      13       -0.000001668268    -0.000000058782    -0.000001079309
      14        0.000000099035    -0.000000533681     0.000000492762
      15       -0.000000365032    -0.000002325382     0.000001080081
      16       -0.000000206126     0.000000057094     0.000000028418
      17       -0.000000013273    -0.000000058931     0.000000031618
      18        0.000000120749     0.000000176907    -0.000000093242
      19       -0.000000191794    -0.000000080264     0.000000106958

    Molecular point group: c1

    Geometry (in Angstrom), charge = 0, multiplicity = 1:

    C           -0.330632550915    -1.209334298667     0.217885496216
    O           -1.056636441306     0.760546463220     1.364365909300
    C           -0.219717454663     0.145944494074     0.497052623826
    C            0.798934607715     0.872499013931    -0.090612258447
    H            0.895068659389     1.914813772906     0.144055554989
    O           -4.157149618270     2.343675765265     1.687937872479
    C            1.697088564915     0.269200160970    -0.953125241988
    C            1.577699429214    -1.083945032066    -1.232254319456
    C            0.563513453265    -1.817328024083    -0.640410323060
    H            0.474870507029    -2.864759802349    -0.850020518413
    C           -2.228642866091     1.301700563945     0.816406639718
    H           -2.870510165823     0.531887749836     0.410872305539
    H           -1.994998653388     2.005628268881     0.023445465731
    C           -3.020151778058     2.051123697410     1.863382884947
    O           -2.332849003678     2.382643679741     2.937857165284
    H           -2.912376007900     2.862683121754     3.522427162648
    CL           2.667276899896    -1.900932169333    -2.301435107824
    CL          -1.579931361629    -2.158884720943     0.955001967131
    CL           2.947924819654     1.240011619047    -1.651327103490

*** Psi4 exiting successfully. Buy a developer a beer!
