                               Psi4 1.2.1 release

  ==> Input File <==

--------------------------------------------------------------------------
memory 110 Gb

molecule conf7 {
C    -0.264894886677    -1.264076512584     0.170729619094
O    -1.181918283125     0.610787393566     1.340050375244
C    -0.269704270651     0.086704759073     0.487931070280
C     0.706643416544     0.908659915583    -0.043369926383
H     0.708256305955     1.948422802953     0.221104023252
O    -2.712117487494     3.023706298253     2.144748885381
C     1.678333092736     0.402101927351    -0.887885898850
C     1.676194445041    -0.948422899036    -1.204815150364
C     0.704006257824    -1.775731852594    -0.669589612098
H     0.705800064396    -2.820413085204    -0.909444177101
C    -2.367366003255     1.109199568166     0.760319623403
H    -3.001114251367     0.298856168413     0.430416497686
H    -2.138641917308     1.767703450642    -0.067207582778
C    -3.044636471298     1.927730870761     1.843620608108
O    -4.047113565835     1.279663771290     2.416226096506
H    -4.415165488459     1.831803746964     3.100240611395
CL     2.863114821289    -1.647076520717    -2.254311768410
CL    -1.461888685681    -2.327525238574     0.834983515381
CL     2.871137840182     1.486514039870    -1.516613236941
}
set globals {
  reference rhf
  g_convergence gau_tight
  basis 6-31G(d)
}
frequency('hf', dertype=1)
--------------------------------------------------------------------------

    Molecular point group: c1
  Charge       = 0
  Multiplicity = 1
  Basis Set: 6-31G(D)
    Blend: 6-31G(D)
  Basis Set: (6-31G(D) AUX)
    Blend: CC-PVDZ-JKFIT
  @DF-RHF Final Energy: -1908.87559474824275
    Total Energy =                      -1908.8755947482427473
    Molecular point group: c1
  Basis Set: 6-31G(D)
    Blend: 6-31G(D)
  Basis Set: (6-31G(D) AUX)
    Blend: CC-PVDZ-JKFIT
  Basis Set: 6-31G(D)
    Blend: 6-31G(D)
  Basis Set: (6-31G(D) AUX)
    Blend: CC-PVDZ-JKFIT
  @DF-RHF Final Energy: -1908.87559420986986
    Total Energy =                      -1908.8755942098698597
  Basis Set: 6-31G(D)
    Blend: 6-31G(D)
  Basis Set: (6-31G(D) AUX)
    Blend: CC-PVDZ-JKFIT
  Basis Set: 6-31G(D)
    Blend: 6-31G(D)
  @DF-RHF Final Energy: -1908.87559420092521
    Total Energy =                      -1908.8755942009252067
  @DF-RHF Final Energy: -1908.87559401940598
    Total Energy =                      -1908.8755940194059804
  @DF-RHF Final Energy: -1908.87559402304032
    Total Energy =                      -1908.8755940230403212
  @DF-RHF Final Energy: -1908.87559435585126
    Total Energy =                      -1908.8755943558512627
  @DF-RHF Final Energy: -1908.87559435721982
    Total Energy =                      -1908.8755943572198248
  @DF-RHF Final Energy: -1908.87559430393776
    Total Energy =                      -1908.8755943039377598
  @DF-RHF Final Energy: -1908.87559430360579
    Total Energy =                      -1908.8755943036057943
  @DF-RHF Final Energy: -1908.87559456570602
    Total Energy =                      -1908.8755945657060238
  @DF-RHF Final Energy: -1908.87559456843428
    Total Energy =                      -1908.8755945684342805
  @DF-RHF Final Energy: -1908.87559444537715
    Total Energy =                      -1908.8755944453771463
  @DF-RHF Final Energy: -1908.87559444448425
    Total Energy =                      -1908.8755944444842498
  @DF-RHF Final Energy: -1908.87559410946574
    Total Energy =                      -1908.8755941094657373
  @DF-RHF Final Energy: -1908.87559411032657
    Total Energy =                      -1908.8755941103265741
  @DF-RHF Final Energy: -1908.87559399032830
    Total Energy =                      -1908.8755939903282979
  @DF-RHF Final Energy: -1908.87559399143174
    Total Energy =                      -1908.8755939914317423
  @DF-RHF Final Energy: -1908.87559431623231
    Total Energy =                      -1908.8755943162323092
  @DF-RHF Final Energy: -1908.87559431298905
    Total Energy =                      -1908.8755943129890511
  @DF-RHF Final Energy: -1908.87559415879741
    Total Energy =                      -1908.8755941587974121
  @DF-RHF Final Energy: -1908.87559422209847
    Total Energy =                      -1908.8755942220984707
  @DF-RHF Final Energy: -1908.87559441995336
    Total Energy =                      -1908.8755944199533587
  @DF-RHF Final Energy: -1908.87559441600024
    Total Energy =                      -1908.8755944160002400
  @DF-RHF Final Energy: -1908.87559431989553
    Total Energy =                      -1908.8755943198955265
  @DF-RHF Final Energy: -1908.87559432198941
    Total Energy =                      -1908.8755943219894107
  @DF-RHF Final Energy: -1908.87559427225051
    Total Energy =                      -1908.8755942722505097
  @DF-RHF Final Energy: -1908.87559427329325
    Total Energy =                      -1908.8755942732932454
  @DF-RHF Final Energy: -1908.87559283416317
    Total Energy =                      -1908.8755928341631716
  @DF-RHF Final Energy: -1908.87559283261953
    Total Energy =                      -1908.8755928326195317
  @DF-RHF Final Energy: -1908.87559208619336
    Total Energy =                      -1908.8755920861933646
  @DF-RHF Final Energy: -1908.87559208804373
    Total Energy =                      -1908.8755920880437316
  @DF-RHF Final Energy: -1908.87559139372161
    Total Energy =                      -1908.8755913937216064
  @DF-RHF Final Energy: -1908.87559140598432
    Total Energy =                      -1908.8755914059843235
  @DF-RHF Final Energy: -1908.87559467249434
    Total Energy =                      -1908.8755946724943442
  @DF-RHF Final Energy: -1908.87559467052574
    Total Energy =                      -1908.8755946705257429
  @DF-RHF Final Energy: -1908.87559471244003
    Total Energy =                      -1908.8755947124400336
  @DF-RHF Final Energy: -1908.87559470950509
    Total Energy =                      -1908.8755947095050942
  @DF-RHF Final Energy: -1908.87559464517108
    Total Energy =                      -1908.8755946451710770
  Basis Set: (6-31G(D) AUX)
    Blend: CC-PVDZ-JKFIT
  Basis Set: 6-31G(D)
    Blend: 6-31G(D)
  Basis Set: (6-31G(D) AUX)
    Blend: CC-PVDZ-JKFIT
  @DF-RHF Final Energy: -1908.87559464720152
    Total Energy =                      -1908.8755946472015239
  Basis Set: 6-31G(D)
    Blend: 6-31G(D)
  Basis Set: (6-31G(D) AUX)
    Blend: CC-PVDZ-JKFIT
    Molecular point group: c1
  Charge       = 0
  Multiplicity = 1
  Basis Set: 6-31G(D)
    Blend: 6-31G(D)
  Basis Set: (6-31G(D) AUX)
    Blend: CC-PVDZ-JKFIT

    Orbital Energies [Eh]
    ---------------------

    Doubly Occupied:

       1A   -104.848743     2A   -104.847312     3A   -104.846908
       4A    -20.633759     5A    -20.617671     6A    -20.571484
       7A    -11.402091     8A    -11.337805     9A    -11.337002
      10A    -11.334130    11A    -11.329193    12A    -11.320631
      13A    -11.284080    14A    -11.275797    15A    -10.581780
      16A    -10.580579    17A    -10.580132    18A     -8.051232
      19A     -8.050024    20A     -8.049578    21A     -8.047759
      22A     -8.047703    23A     -8.046488    24A     -8.046463
      25A     -8.046039    26A     -8.046036    27A     -1.497532
      28A     -1.448188    29A     -1.387859    30A     -1.244717
      31A     -1.187163    32A     -1.154666    33A     -1.114434
      34A     -1.055562    35A     -1.021740    36A     -0.980989
      37A     -0.884195    38A     -0.856483    39A     -0.827066
      40A     -0.748554    41A     -0.740057    42A     -0.718898
      43A     -0.718055    44A     -0.678830    45A     -0.656313
      46A     -0.653477    47A     -0.635600    48A     -0.628100
      49A     -0.609290    50A     -0.592966    51A     -0.577378
      52A     -0.561315    53A     -0.560307    54A     -0.528974
      55A     -0.501258    56A     -0.500954    57A     -0.487864
      58A     -0.481925    59A     -0.474140    60A     -0.461573
      61A     -0.460277    62A     -0.456684    63A     -0.367303
      64A     -0.347178

  @DF-RHF Final Energy: -1908.87559474554428

   => Energetics <=

    Nuclear Repulsion Energy =           1166.9004635971080006
    One-Electron Energy =               -4951.6155487592059217
    Two-Electron Energy =                1875.8394904165538719
    Total Energy =                      -1908.8755947455442765

  Dipole Moment: [D]
     X:    -2.3999      Y:    -0.5635      Z:    -0.4221     Total:     2.5011

    Molecular point group: c1

    Geometry (in Angstrom), charge = 0, multiplicity = 1:

       Center              X                  Y                   Z               Mass
    ------------   -----------------  -----------------  -----------------  -----------------
         C           -0.264894886677    -1.264076512584     0.170729619094    12.000000000000
         O           -1.181918283125     0.610787393566     1.340050375244    15.994914619560
         C           -0.269704270651     0.086704759073     0.487931070280    12.000000000000
         C            0.706643416544     0.908659915583    -0.043369926383    12.000000000000
         H            0.708256305955     1.948422802953     0.221104023252     1.007825032070
         O           -2.712117487494     3.023706298253     2.144748885381    15.994914619560
         C            1.678333092736     0.402101927351    -0.887885898850    12.000000000000
         C            1.676194445041    -0.948422899036    -1.204815150364    12.000000000000
         C            0.704006257824    -1.775731852594    -0.669589612098    12.000000000000
         H            0.705800064396    -2.820413085204    -0.909444177101     1.007825032070
         C           -2.367366003255     1.109199568166     0.760319623403    12.000000000000
         H           -3.001114251367     0.298856168413     0.430416497686     1.007825032070
         H           -2.138641917308     1.767703450642    -0.067207582778     1.007825032070
         C           -3.044636471298     1.927730870761     1.843620608108    12.000000000000
         O           -4.047113565835     1.279663771290     2.416226096506    15.994914619560
         H           -4.415165488459     1.831803746964     3.100240611395     1.007825032070
         CL           2.863114821289    -1.647076520717    -2.254311768410    34.968852682000
         CL          -1.461888685681    -2.327525238574     0.834983515381    34.968852682000
         CL           2.871137840182     1.486514039870    -1.516613236941    34.968852682000

  Basis Set: 6-31G(D)
    Blend: 6-31G(D)
  Basis Set: (6-31G(D) AUX)
    Blend: CC-PVDZ-JKFIT

  -Total Gradient:
     Atom            X                  Y                   Z
    ------   -----------------  -----------------  -----------------
       1        0.000000647431    -0.000000718841    -0.000000234455
       2        0.000000058010     0.000000279542     0.000000081000
       3       -0.000001464192     0.000000080105     0.000001287072
       4        0.000001003533     0.000000837632    -0.000001233640
       5       -0.000000024052     0.000000314217    -0.000000077955
       6        0.000000745258    -0.000000447648    -0.000000495887
       7        0.000001321130    -0.000000041173     0.000000623408
       8        0.000000612860    -0.000000337643     0.000000603045
       9       -0.000001131025     0.000000141913     0.000000156377
      10        0.000000164868    -0.000000439288    -0.000000352305
      11       -0.000000632623    -0.000000351104     0.000000250606
      12       -0.000000507174    -0.000000402570    -0.000000127301
      13        0.000000332569     0.000000285339    -0.000000064421
      14       -0.000000981172     0.000001092546     0.000001217806
      15        0.000000613751    -0.000000742890    -0.000000500804
      16        0.000000133850     0.000000032180    -0.000000393164
      17       -0.000000417478     0.000000193053    -0.000000258567
      18       -0.000000080188     0.000000132169    -0.000000132798
      19       -0.000000395144     0.000000092597    -0.000000347984

  Vibration                       1                   8                   9
  Freq [cm^-1]                 52.1487i             8.2659             51.6162
  Irrep                           A                   A                   A
  Reduced mass [u]              6.7327              8.6076              9.5518
  Force const [mDyne/A]        -0.0108              0.0003              0.0150

  Vibration                       10                  11                  12
  Freq [cm^-1]                 62.1849             109.7180            171.5335
  Irrep                           A                   A                   A
  Reduced mass [u]              5.8231             11.2284             10.4457
  Force const [mDyne/A]         0.0133              0.0796              0.1811

  Vibration                       13                  14                  15
  Freq [cm^-1]                 193.9945            211.8019            241.1430
  Irrep                           A                   A                   A
  Reduced mass [u]              8.2715             28.7921             13.0779
  Force const [mDyne/A]         0.1834              0.7610              0.4481

  Vibration                       16                  17                  18
  Freq [cm^-1]                 279.8521            300.7817            355.7978
  Irrep                           A                   A                   A
  Reduced mass [u]              6.6287             10.6885             23.2223
  Force const [mDyne/A]         0.3059              0.5697              1.7321

  Vibration                       19                  20                  21
  Freq [cm^-1]                 412.7830            445.6465            466.8209
  Irrep                           A                   A                   A
  Reduced mass [u]              8.2824              3.3780              8.1960
  Force const [mDyne/A]         0.8315              0.3953              1.0523

  Vibration                       22                  23                  24
  Freq [cm^-1]                 521.3903            576.3486            615.3137
  Irrep                           A                   A                   A
  Reduced mass [u]              3.5077              7.2020              3.1624
  Force const [mDyne/A]         0.5618              1.4095              0.7054

  Vibration                       25                  26                  27
  Freq [cm^-1]                 632.1133            681.4344            727.5125
  Irrep                           A                   A                   A
  Reduced mass [u]              3.6798              1.9072              7.2585
  Force const [mDyne/A]         0.8663              0.5218              2.2635

  Vibration                       28                  29                  30
  Freq [cm^-1]                 744.8888            778.5117            818.0026
  Irrep                           A                   A                   A
  Reduced mass [u]              6.5490              4.6320              4.3847
  Force const [mDyne/A]         2.1410              1.6540              1.7286

  Vibration                       31                  32                  33
  Freq [cm^-1]                 859.5310            994.5902           1006.1673
  Irrep                           A                   A                   A
  Reduced mass [u]              5.7216              3.3770              1.7297
  Force const [mDyne/A]         2.4905              1.9682              1.0317

  Vibration                       34                  35                  36
  Freq [cm^-1]                1023.8492           1051.4543           1123.8685
  Irrep                           A                   A                   A
  Reduced mass [u]              1.6393              4.0695              1.7241
  Force const [mDyne/A]         1.0125              2.6507              1.2831

  Vibration                       37                  38                  39
  Freq [cm^-1]                1172.6342           1195.8353           1201.3975
  Irrep                           A                   A                   A
  Reduced mass [u]              7.7582              5.4032              6.1269
  Force const [mDyne/A]         6.2854              4.5524              5.2103

  Vibration                       40                  41                  42
  Freq [cm^-1]                1258.8041           1331.8683           1375.4059
  Irrep                           A                   A                   A
  Reduced mass [u]              2.3375              1.7087              1.2935
  Force const [mDyne/A]         2.1823              1.7858              1.4417

  Vibration                       43                  44                  45
  Freq [cm^-1]                1386.3570           1402.3781           1488.2930
  Irrep                           A                   A                   A
  Reduced mass [u]              1.1994              4.5999              2.0298
  Force const [mDyne/A]         1.3582              5.3300              2.6490

  Vibration                       46                  47                  48
  Freq [cm^-1]                1506.7264           1600.5380           1650.3841
  Irrep                           A                   A                   A
  Reduced mass [u]              4.6107              1.8895              2.8789
  Force const [mDyne/A]         6.1671              2.8519              4.6201

  Vibration                       49                  50                  51
  Freq [cm^-1]                1663.7108           1744.1601           1791.1918
  Irrep                           A                   A                   A
  Reduced mass [u]              1.1555             10.2884              6.4879
  Force const [mDyne/A]         1.8845             18.4404             12.2642

  Vibration                       52                  53                  54
  Freq [cm^-1]                2056.7376           3259.7985           3324.9868
  Irrep                           A                   A                   A
  Reduced mass [u]             10.2029              1.0583              1.1105
  Force const [mDyne/A]        25.4291              6.6261              7.2333

  Vibration                       55                  56                  57
  Freq [cm^-1]                3411.3659           3421.3133           4047.2695
  Irrep                           A                   A                   A
  Reduced mass [u]              1.0939              1.0941              1.0651
  Force const [mDyne/A]         7.5005              7.5453             10.2791

  ==> Thermochemistry Components <==

  Entropy, S
    Electronic S            0.000 [cal/(mol K)]        0.000 [J/(mol K)]       0.00000000 [mEh/K] (multiplicity = 1)
    Translational S        42.496 [cal/(mol K)]      177.803 [J/(mol K)]       0.06772143 [mEh/K] (mol. weight = 253.9304 [u], P = 101325.00 [Pa])
    Rotational S           33.372 [cal/(mol K)]      139.626 [J/(mol K)]       0.05318091 [mEh/K] (symmetry no. = 1)
    Vibrational S          39.858 [cal/(mol K)]      166.767 [J/(mol K)]       0.06351801 [mEh/K]
  Total S                 115.726 [cal/(mol K)]      484.196 [J/(mol K)]       0.18442035 [mEh/K]
  Correction S              0.000 [cal/(mol K)]        0.000 [J/(mol K)]       0.00000000 [mEh/K]

  Constant volume heat capacity, Cv
    Electronic Cv           0.000 [cal/(mol K)]        0.000 [J/(mol K)]       0.00000000 [mEh/K]
    Translational Cv        2.981 [cal/(mol K)]       12.472 [J/(mol K)]       0.00475022 [mEh/K]
    Rotational Cv           2.981 [cal/(mol K)]       12.472 [J/(mol K)]       0.00475022 [mEh/K]
    Vibrational Cv         36.105 [cal/(mol K)]      151.063 [J/(mol K)]       0.05753700 [mEh/K]
  Total Cv                 42.067 [cal/(mol K)]      176.007 [J/(mol K)]       0.06703745 [mEh/K]
  Correction Cv             0.000 [cal/(mol K)]        0.000 [J/(mol K)]       0.00000000 [mEh/K]

  Constant pressure heat capacity, Cp
    Electronic Cp           0.000 [cal/(mol K)]        0.000 [J/(mol K)]       0.00000000 [mEh/K]
    Translational Cp        4.968 [cal/(mol K)]       20.786 [J/(mol K)]       0.00791704 [mEh/K]
    Rotational Cp           2.981 [cal/(mol K)]       12.472 [J/(mol K)]       0.00475022 [mEh/K]
    Vibrational Cp         36.105 [cal/(mol K)]      151.063 [J/(mol K)]       0.05753700 [mEh/K]
  Total Cp                 44.054 [cal/(mol K)]      184.321 [J/(mol K)]       0.07020426 [mEh/K]
  Correction Cp             0.000 [cal/(mol K)]        0.000 [J/(mol K)]       0.00000000 [mEh/K]

  ==> Thermochemistry Energy Analysis <==

  Raw electronic energy, E0
  Total E0, Electronic energy at well bottom at 0 [K]                -1908.87559475 [Eh]

  Zero-point energy, ZPE_vib = Sum_i nu_i / 2
    Electronic ZPE          0.000 [kcal/mol]        0.000 [kJ/mol]       0.00000000 [Eh]
    Translational ZPE       0.000 [kcal/mol]        0.000 [kJ/mol]       0.00000000 [Eh]
    Rotational ZPE          0.000 [kcal/mol]        0.000 [kJ/mol]       0.00000000 [Eh]
    Vibrational ZPE        81.140 [kcal/mol]      339.489 [kJ/mol]       0.12930438 [Eh]       28379.027 [cm^-1]
  Correction ZPE           81.140 [kcal/mol]      339.489 [kJ/mol]       0.12930438 [Eh]       28379.027 [cm^-1]
  Total ZPE, Electronic energy at 0 [K]                              -1908.74629037 [Eh]

  Thermal Energy, E (includes ZPE)
    Electronic E            0.000 [kcal/mol]        0.000 [kJ/mol]       0.00000000 [Eh]
    Translational E         0.889 [kcal/mol]        3.718 [kJ/mol]       0.00141628 [Eh]
    Rotational E            0.889 [kcal/mol]        3.718 [kJ/mol]       0.00141628 [Eh]
    Vibrational E          86.808 [kcal/mol]      363.205 [kJ/mol]       0.13833736 [Eh]
  Correction E             88.585 [kcal/mol]      370.642 [kJ/mol]       0.14116992 [Eh]
  Total E, Electronic energy at  298.15 [K]                          -1908.73442483 [Eh]

  Enthalpy, H_trans = E_trans + k_B * T
    Electronic H            0.000 [kcal/mol]        0.000 [kJ/mol]       0.00000000 [Eh]
    Translational H         1.481 [kcal/mol]        6.197 [kJ/mol]       0.00236046 [Eh]
    Rotational H            0.889 [kcal/mol]        3.718 [kJ/mol]       0.00141628 [Eh]
    Vibrational H          86.808 [kcal/mol]      363.205 [kJ/mol]       0.13833736 [Eh]
  Correction H             89.178 [kcal/mol]      373.121 [kJ/mol]       0.14211410 [Eh]
  Total H, Enthalpy at  298.15 [K]                                   -1908.73348064 [Eh]

  Gibbs free energy, G = H - T * S
    Electronic G            0.000 [kcal/mol]        0.000 [kJ/mol]       0.00000000 [Eh]
    Translational G       -11.189 [kcal/mol]      -46.814 [kJ/mol]      -0.01783068 [Eh]
    Rotational G           -9.061 [kcal/mol]      -37.911 [kJ/mol]      -0.01443961 [Eh]
    Vibrational G          74.924 [kcal/mol]      313.483 [kJ/mol]       0.11939947 [Eh]
  Correction G             54.674 [kcal/mol]      228.758 [kJ/mol]       0.08712918 [Eh]
  Total G, Free enthalpy at  298.15 [K]                              -1908.78846557 [Eh]

*** Psi4 exiting successfully. Buy a developer a beer!
