                               Psi4 1.2.1 release

  ==> Input File <==

--------------------------------------------------------------------------
memory 110 Gb

molecule conf9 {
    C            0.652680553299    -0.856200972318    -0.844613186490
    O            1.595224487166     0.813956460119     0.486575466651
    C            0.487755122581     0.183019384366     0.074830347390
    C           -0.790079745849     0.496341475488     0.498496723383
    H           -0.961030951872     1.287512364436     1.199086262658
    O            3.004150891080     3.408831243629     2.344449677264
    C           -1.889874102372    -0.207970655697     0.023001971692
    C           -1.720475262995    -1.233360261221    -0.883520868667
    C           -0.437282664455    -1.549137833189    -1.312261158708
    H           -0.296959868937    -2.344545669998    -2.017059833467
    C            1.506067671142     1.846669132494     1.417440092516
    H            1.057115548739     1.504337252196     2.344498342883
    H            0.923474856991     2.677418436203     1.039780233319
    C            2.878148918443     2.382468243194     1.761578484961
    O            3.879504754748     1.608324865596     1.402542138015
    H            4.691041492386     2.023969368480     1.679608578541
    CL          -3.050379934684    -2.147638142645    -1.512575607499
    CL           2.235096841688    -1.280942647669    -1.404246663527
    CL          -3.454752702129     0.248634588427     0.605790942308
}
set globals {
  reference rhf
  g_convergence gau_tight
  basis 6-31G(d)
}
frequency('hf', dertype=1)
--------------------------------------------------------------------------

    Molecular point group: c1
  Charge       = 0
  Multiplicity = 1
  Basis Set: 6-31G(D)
    Blend: 6-31G(D)
  Basis Set: (6-31G(D) AUX)
    Blend: CC-PVDZ-JKFIT
  @DF-RHF Final Energy: -1908.87881633683878
    Total Energy =                      -1908.8788163368387814
    Molecular point group: c1
  Basis Set: 6-31G(D)
    Blend: 6-31G(D)
  Basis Set: (6-31G(D) AUX)
    Blend: CC-PVDZ-JKFIT
  Basis Set: 6-31G(D)
    Blend: 6-31G(D)
  Basis Set: (6-31G(D) AUX)
    Blend: CC-PVDZ-JKFIT
  @DF-RHF Final Energy: -1908.87881559105153
    Total Energy =                      -1908.8788155910515343
  Basis Set: 6-31G(D)
    Blend: 6-31G(D)
  Basis Set: (6-31G(D) AUX)
    Blend: CC-PVDZ-JKFIT
  Basis Set: 6-31G(D)
    Blend: 6-31G(D)
  @DF-RHF Final Energy: -1908.87881559436710
    Total Energy =                      -1908.8788155943670972
  @DF-RHF Final Energy: -1908.87881581372585
    Total Energy =                      -1908.8788158137258506
  @DF-RHF Final Energy: -1908.87881582137857
    Total Energy =                      -1908.8788158213785664
  @DF-RHF Final Energy: -1908.87881592797362
    Total Energy =                      -1908.8788159279736192
  @DF-RHF Final Energy: -1908.87881593187558
    Total Energy =                      -1908.8788159318755788
  @DF-RHF Final Energy: -1908.87881594972123
    Total Energy =                      -1908.8788159497212291
  @DF-RHF Final Energy: -1908.87881595213435
    Total Energy =                      -1908.8788159521343459
  @DF-RHF Final Energy: -1908.87881599522893
    Total Energy =                      -1908.8788159952289334
  @DF-RHF Final Energy: -1908.87881599190041
    Total Energy =                      -1908.8788159919004102
  @DF-RHF Final Energy: -1908.87881607425356
    Total Energy =                      -1908.8788160742535638
  @DF-RHF Final Energy: -1908.87881606787005
    Total Energy =                      -1908.8788160678700478
  @DF-RHF Final Energy: -1908.87881549739313
    Total Energy =                      -1908.8788154973931341
  @DF-RHF Final Energy: -1908.87881550084012
    Total Energy =                      -1908.8788155008401191
  @DF-RHF Final Energy: -1908.87881579137502
    Total Energy =                      -1908.8788157913750183
  @DF-RHF Final Energy: -1908.87881579214081
    Total Energy =                      -1908.8788157921408128
  @DF-RHF Final Energy: -1908.87881588430309
    Total Energy =                      -1908.8788158843030942
  @DF-RHF Final Energy: -1908.87881588022151
    Total Energy =                      -1908.8788158802215094
  @DF-RHF Final Energy: -1908.87881554334535
    Total Energy =                      -1908.8788155433453539
  @DF-RHF Final Energy: -1908.87881592243161
    Total Energy =                      -1908.8788159224316132
  @DF-RHF Final Energy: -1908.87881573782579
    Total Energy =                      -1908.8788157378257893
  @DF-RHF Final Energy: -1908.87881573954155
    Total Energy =                      -1908.8788157395415510
  @DF-RHF Final Energy: -1908.87881600396236
    Total Energy =                      -1908.8788160039623563
  @DF-RHF Final Energy: -1908.87881600258834
    Total Energy =                      -1908.8788160025883371
  @DF-RHF Final Energy: -1908.87881624303122
    Total Energy =                      -1908.8788162430312241
  @DF-RHF Final Energy: -1908.87881624160286
    Total Energy =                      -1908.8788162416028626
  @DF-RHF Final Energy: -1908.87881064229236
    Total Energy =                      -1908.8788106422923647
  @DF-RHF Final Energy: -1908.87881067289845
    Total Energy =                      -1908.8788106728984530
  @DF-RHF Final Energy: -1908.87881463987651
    Total Energy =                      -1908.8788146398765093
  @DF-RHF Final Energy: -1908.87881463903705
    Total Energy =                      -1908.8788146390370457
  @DF-RHF Final Energy: -1908.87881560670121
    Total Energy =                      -1908.8788156067012096
  @DF-RHF Final Energy: -1908.87881560083838
    Total Energy =                      -1908.8788156008383794
  @DF-RHF Final Energy: -1908.87881626063904
    Total Energy =                      -1908.8788162606390415
  @DF-RHF Final Energy: -1908.87881626525109
    Total Energy =                      -1908.8788162652510891
  @DF-RHF Final Energy: -1908.87881629386357
    Total Energy =                      -1908.8788162938635651
  @DF-RHF Final Energy: -1908.87881629547223
    Total Energy =                      -1908.8788162954722338
  @DF-RHF Final Energy: -1908.87881623324711
    Total Energy =                      -1908.8788162332471074
  Basis Set: (6-31G(D) AUX)
    Blend: CC-PVDZ-JKFIT
  Basis Set: 6-31G(D)
    Blend: 6-31G(D)
  Basis Set: (6-31G(D) AUX)
    Blend: CC-PVDZ-JKFIT
  @DF-RHF Final Energy: -1908.87881623110798
    Total Energy =                      -1908.8788162311079759
  Basis Set: 6-31G(D)
    Blend: 6-31G(D)
  Basis Set: (6-31G(D) AUX)
    Blend: CC-PVDZ-JKFIT
    Molecular point group: c1
  Charge       = 0
  Multiplicity = 1
  Basis Set: 6-31G(D)
    Blend: 6-31G(D)
  Basis Set: (6-31G(D) AUX)
    Blend: CC-PVDZ-JKFIT

    Orbital Energies [Eh]
    ---------------------

    Doubly Occupied:

       1A   -104.848363     2A   -104.844033     3A   -104.840179
       4A    -20.635399     5A    -20.631192     6A    -20.571931
       7A    -11.408237     8A    -11.348832     9A    -11.338117
      10A    -11.331361    11A    -11.327109    12A    -11.323301
      13A    -11.282795    14A    -11.275718    15A    -10.581656
      16A    -10.577190    17A    -10.573202    18A     -8.051093
      19A     -8.047573    20A     -8.047550    21A     -8.046641
      22A     -8.043127    23A     -8.043100    24A     -8.042684
      25A     -8.039150    26A     -8.039111    27A     -1.503209
      28A     -1.465209    29A     -1.390983    30A     -1.243228
      31A     -1.184549    32A     -1.152860    33A     -1.111202
      34A     -1.062223    35A     -1.027918    36A     -0.979689
      37A     -0.891697    38A     -0.854146    39A     -0.831712
      40A     -0.762046    41A     -0.741630    42A     -0.723761
      43A     -0.711423    44A     -0.695119    45A     -0.672046
      46A     -0.651256    47A     -0.645284    48A     -0.607881
      49A     -0.602702    50A     -0.598048    51A     -0.581522
      52A     -0.567606    53A     -0.551294    54A     -0.532210
      55A     -0.515463    56A     -0.499096    57A     -0.491184
      58A     -0.484860    59A     -0.471416    60A     -0.465612
      61A     -0.458288    62A     -0.450417    63A     -0.365650
      64A     -0.335173

  @DF-RHF Final Energy: -1908.87881633746997

   => Energetics <=

    Nuclear Repulsion Energy =           1165.3073335323881565
    One-Electron Energy =               -4948.3357889578674076
    Two-Electron Energy =                1874.1496390880095078
    Total Energy =                      -1908.8788163374699707

  Dipole Moment: [D]
     X:     1.0272      Y:     0.2070      Z:     0.6257     Total:     1.2204

    Molecular point group: c1

    Geometry (in Angstrom), charge = 0, multiplicity = 1:

       Center              X                  Y                   Z               Mass
    ------------   -----------------  -----------------  -----------------  -----------------
         C            0.652680553299    -0.856200972318    -0.844613186490    12.000000000000
         O            1.595224487166     0.813956460119     0.486575466651    15.994914619560
         C            0.487755122581     0.183019384366     0.074830347390    12.000000000000
         C           -0.790079745849     0.496341475488     0.498496723383    12.000000000000
         H           -0.961030951872     1.287512364436     1.199086262658     1.007825032070
         O            3.004150891080     3.408831243629     2.344449677264    15.994914619560
         C           -1.889874102372    -0.207970655697     0.023001971692    12.000000000000
         C           -1.720475262995    -1.233360261221    -0.883520868667    12.000000000000
         C           -0.437282664455    -1.549137833189    -1.312261158708    12.000000000000
         H           -0.296959868937    -2.344545669998    -2.017059833467     1.007825032070
         C            1.506067671142     1.846669132494     1.417440092516    12.000000000000
         H            1.057115548739     1.504337252196     2.344498342883     1.007825032070
         H            0.923474856991     2.677418436203     1.039780233319     1.007825032070
         C            2.878148918443     2.382468243194     1.761578484961    12.000000000000
         O            3.879504754748     1.608324865596     1.402542138015    15.994914619560
         H            4.691041492386     2.023969368480     1.679608578541     1.007825032070
         CL          -3.050379934684    -2.147638142645    -1.512575607499    34.968852682000
         CL           2.235096841688    -1.280942647669    -1.404246663527    34.968852682000
         CL          -3.454752702129     0.248634588427     0.605790942308    34.968852682000

  Basis Set: 6-31G(D)
    Blend: 6-31G(D)
  Basis Set: (6-31G(D) AUX)
    Blend: CC-PVDZ-JKFIT

  -Total Gradient:
     Atom            X                  Y                   Z
    ------   -----------------  -----------------  -----------------
       1       -0.000000572930    -0.000001937466    -0.000000941823
       2       -0.000000581838     0.000000574040     0.000001460249
       3       -0.000000308442     0.000001325715     0.000000561230
       4        0.000002433299     0.000000548150    -0.000000352148
       5        0.000000002715     0.000000392434     0.000000407791
       6       -0.000000088680     0.000001402713     0.000000681385
       7       -0.000000314644    -0.000002290530    -0.000000930043
       8       -0.000002055424     0.000001113379     0.000000867078
       9        0.000001850247     0.000000734874    -0.000000087279
      10       -0.000000047156    -0.000000003730     0.000000051823
      11        0.000000242862    -0.000001018394    -0.000000480314
      12       -0.000000567830     0.000000121836    -0.000000006383
      13       -0.000000116898     0.000000199402    -0.000000119692
      14       -0.000001453971    -0.000001463396    -0.000000583510
      15       -0.000000389902    -0.000000084818    -0.000000190318
      16        0.000001870947    -0.000000082422    -0.000000329552
      17        0.000000223649    -0.000000129927    -0.000000133838
      18        0.000000026296     0.000000277728     0.000000039927
      19       -0.000000152231     0.000000320533     0.000000085377

  Vibration                       7                   8                   9
  Freq [cm^-1]                 12.9820             30.8442             80.0648
  Irrep                           A                   A                   A
  Reduced mass [u]             10.3490             12.0653             11.8421
  Force const [mDyne/A]         0.0010              0.0068              0.0447

  Vibration                       10                  11                  12
  Freq [cm^-1]                 90.2139             113.0998            166.5255
  Irrep                           A                   A                   A
  Reduced mass [u]             11.0378              2.5963              9.9564
  Force const [mDyne/A]         0.0529              0.0196              0.1627

  Vibration                       13                  14                  15
  Freq [cm^-1]                 191.7254            208.3147            233.6211
  Irrep                           A                   A                   A
  Reduced mass [u]             12.0159             23.0736             13.1532
  Force const [mDyne/A]         0.2602              0.5899              0.4230

  Vibration                       16                  17                  18
  Freq [cm^-1]                 261.6923            291.9987            361.5341
  Irrep                           A                   A                   A
  Reduced mass [u]              5.9136             13.4998             26.1234
  Force const [mDyne/A]         0.2386              0.6782              2.0118

  Vibration                       19                  20                  21
  Freq [cm^-1]                 417.3699            460.0335            495.5536
  Irrep                           A                   A                   A
  Reduced mass [u]             11.4948              9.1103             11.5237
  Force const [mDyne/A]         1.1798              1.1360              1.6673

  Vibration                       22                  23                  24
  Freq [cm^-1]                 505.1057            582.1357            591.3857
  Irrep                           A                   A                   A
  Reduced mass [u]              3.0546              1.6215              8.0015
  Force const [mDyne/A]         0.4592              0.3238              1.6488

  Vibration                       25                  26                  27
  Freq [cm^-1]                 651.2479            673.5431            715.5431
  Irrep                           A                   A                   A
  Reduced mass [u]              4.7598              3.5615              9.3559
  Force const [mDyne/A]         1.1894              0.9520              2.8223

  Vibration                       28                  29                  30
  Freq [cm^-1]                 748.0483            750.4279            783.3384
  Irrep                           A                   A                   A
  Reduced mass [u]              2.9700              3.2456              3.7867
  Force const [mDyne/A]         0.9792              1.0769              1.3690

  Vibration                       31                  32                  33
  Freq [cm^-1]                 837.0083            969.1451            971.4149
  Irrep                           A                   A                   A
  Reduced mass [u]              7.6631              1.6703              2.9802
  Force const [mDyne/A]         3.1631              0.9243              1.6569

  Vibration                       34                  35                  36
  Freq [cm^-1]                1027.1783           1033.2155           1151.7491
  Irrep                           A                   A                   A
  Reduced mass [u]              1.3892              9.4727              1.9976
  Force const [mDyne/A]         0.8636              5.9581              1.5613

  Vibration                       37                  38                  39
  Freq [cm^-1]                1190.1819           1204.3589           1236.1592
  Irrep                           A                   A                   A
  Reduced mass [u]              6.8662              7.7927              3.3400
  Force const [mDyne/A]         5.7305              6.6596              3.0071

  Vibration                       40                  41                  42
  Freq [cm^-1]                1283.6797           1344.9470           1397.7063
  Irrep                           A                   A                   A
  Reduced mass [u]              2.9724              1.8719              1.2982
  Force const [mDyne/A]         2.8858              1.9950              1.4943

  Vibration                       43                  44                  45
  Freq [cm^-1]                1403.0328           1430.3399           1500.5286
  Irrep                           A                   A                   A
  Reduced mass [u]              1.0868              4.7359              5.4715
  Force const [mDyne/A]         1.2605              5.7086              7.2585

  Vibration                       46                  47                  48
  Freq [cm^-1]                1530.9162           1588.8129           1641.7106
  Irrep                           A                   A                   A
  Reduced mass [u]              1.7613              2.7052              1.1632
  Force const [mDyne/A]         2.4322              4.0234              1.8472

  Vibration                       49                  50                  51
  Freq [cm^-1]                1667.9873           1751.7814           1791.5219
  Irrep                           A                   A                   A
  Reduced mass [u]              2.5427             10.1491              6.1767
  Force const [mDyne/A]         4.1680             18.3500             11.6801

  Vibration                       52                  53                  54
  Freq [cm^-1]                2035.7345           3228.7403           3289.2339
  Irrep                           A                   A                   A
  Reduced mass [u]             10.1187              1.0610              1.1043
  Force const [mDyne/A]        24.7068              6.5169              7.0391

  Vibration                       55                  56                  57
  Freq [cm^-1]                3420.5904           3430.7223           4047.4726
  Irrep                           A                   A                   A
  Reduced mass [u]              1.0939              1.0923              1.0652
  Force const [mDyne/A]         7.5413              7.5743             10.2811

  ==> Thermochemistry Components <==

  Entropy, S
    Electronic S            0.000 [cal/(mol K)]        0.000 [J/(mol K)]       0.00000000 [mEh/K] (multiplicity = 1)
    Translational S        42.496 [cal/(mol K)]      177.803 [J/(mol K)]       0.06772143 [mEh/K] (mol. weight = 253.9304 [u], P = 101325.00 [Pa])
    Rotational S           33.414 [cal/(mol K)]      139.805 [J/(mol K)]       0.05324878 [mEh/K] (symmetry no. = 1)
    Vibrational S          43.381 [cal/(mol K)]      181.506 [J/(mol K)]       0.06913212 [mEh/K]
  Total S                 119.291 [cal/(mol K)]      499.114 [J/(mol K)]       0.19010233 [mEh/K]
  Correction S              0.000 [cal/(mol K)]        0.000 [J/(mol K)]       0.00000000 [mEh/K]

  Constant volume heat capacity, Cv
    Electronic Cv           0.000 [cal/(mol K)]        0.000 [J/(mol K)]       0.00000000 [mEh/K]
    Translational Cv        2.981 [cal/(mol K)]       12.472 [J/(mol K)]       0.00475022 [mEh/K]
    Rotational Cv           2.981 [cal/(mol K)]       12.472 [J/(mol K)]       0.00475022 [mEh/K]
    Vibrational Cv         38.192 [cal/(mol K)]      159.797 [J/(mol K)]       0.06086338 [mEh/K]
  Total Cv                 44.154 [cal/(mol K)]      184.740 [J/(mol K)]       0.07036382 [mEh/K]
  Correction Cv             0.000 [cal/(mol K)]        0.000 [J/(mol K)]       0.00000000 [mEh/K]

  Constant pressure heat capacity, Cp
    Electronic Cp           0.000 [cal/(mol K)]        0.000 [J/(mol K)]       0.00000000 [mEh/K]
    Translational Cp        4.968 [cal/(mol K)]       20.786 [J/(mol K)]       0.00791704 [mEh/K]
    Rotational Cp           2.981 [cal/(mol K)]       12.472 [J/(mol K)]       0.00475022 [mEh/K]
    Vibrational Cp         38.192 [cal/(mol K)]      159.797 [J/(mol K)]       0.06086338 [mEh/K]
  Total Cp                 46.141 [cal/(mol K)]      193.055 [J/(mol K)]       0.07353064 [mEh/K]
  Correction Cp             0.000 [cal/(mol K)]        0.000 [J/(mol K)]       0.00000000 [mEh/K]

  ==> Thermochemistry Energy Analysis <==

  Raw electronic energy, E0
  Total E0, Electronic energy at well bottom at 0 [K]                -1908.87881634 [Eh]

  Zero-point energy, ZPE_vib = Sum_i nu_i / 2
    Electronic ZPE          0.000 [kcal/mol]        0.000 [kJ/mol]       0.00000000 [Eh]
    Translational ZPE       0.000 [kcal/mol]        0.000 [kJ/mol]       0.00000000 [Eh]
    Rotational ZPE          0.000 [kcal/mol]        0.000 [kJ/mol]       0.00000000 [Eh]
    Vibrational ZPE        81.231 [kcal/mol]      339.872 [kJ/mol]       0.12945051 [Eh]       28411.100 [cm^-1]
  Correction ZPE           81.231 [kcal/mol]      339.872 [kJ/mol]       0.12945051 [Eh]       28411.100 [cm^-1]
  Total ZPE, Electronic energy at 0 [K]                              -1908.74936582 [Eh]

  Thermal Energy, E (includes ZPE)
    Electronic E            0.000 [kcal/mol]        0.000 [kJ/mol]       0.00000000 [Eh]
    Translational E         0.889 [kcal/mol]        3.718 [kJ/mol]       0.00141628 [Eh]
    Rotational E            0.889 [kcal/mol]        3.718 [kJ/mol]       0.00141628 [Eh]
    Vibrational E          87.406 [kcal/mol]      365.707 [kJ/mol]       0.13929027 [Eh]
  Correction E             89.183 [kcal/mol]      373.143 [kJ/mol]       0.14212283 [Eh]
  Total E, Electronic energy at  298.15 [K]                          -1908.73669351 [Eh]

  Enthalpy, H_trans = E_trans + k_B * T
    Electronic H            0.000 [kcal/mol]        0.000 [kJ/mol]       0.00000000 [Eh]
    Translational H         1.481 [kcal/mol]        6.197 [kJ/mol]       0.00236046 [Eh]
    Rotational H            0.889 [kcal/mol]        3.718 [kJ/mol]       0.00141628 [Eh]
    Vibrational H          87.406 [kcal/mol]      365.707 [kJ/mol]       0.13929027 [Eh]
  Correction H             89.776 [kcal/mol]      375.622 [kJ/mol]       0.14306701 [Eh]
  Total H, Enthalpy at  298.15 [K]                                   -1908.73574932 [Eh]

  Gibbs free energy, G = H - T * S
    Electronic G            0.000 [kcal/mol]        0.000 [kJ/mol]       0.00000000 [Eh]
    Translational G       -11.189 [kcal/mol]      -46.814 [kJ/mol]      -0.01783068 [Eh]
    Rotational G           -9.074 [kcal/mol]      -37.964 [kJ/mol]      -0.01445984 [Eh]
    Vibrational G          74.472 [kcal/mol]      311.590 [kJ/mol]       0.11867853 [Eh]
  Correction G             54.209 [kcal/mol]      226.812 [kJ/mol]       0.08638801 [Eh]
  Total G, Free enthalpy at  298.15 [K]                              -1908.79242833 [Eh]

*** Psi4 exiting successfully. Buy a developer a beer!
