                               Psi4 1.1a2.dev170

  ==> Input File <==

--------------------------------------------------------------------------
memory 110 Gb

molecule molecule_1_psi {
0 1
    C           -0.717169886130    -0.028221694508     0.004452327835
    H           -1.091321641961    -0.576498367921    -0.856875672564
    H           -1.113708927287     0.976801983697    -0.032397148070
    H           -1.083040707832    -0.508489916123     0.908869000386
    O            0.678415804156     0.077615785161    -0.006171283781
    H            1.060339122161    -0.787601652874     0.025333467469
}

set globals {
  reference rhf
  basis 6-31G(d)
}
frequency('scf')
--------------------------------------------------------------------------

    Molecular point group: c1
  Charge       = 0
  Multiplicity = 1
  Basis Set: file /usr/local/hpc5/psi4conda/envs/p4env/share/psi4/basis/6-31g_d_.gbs
  Basis Set: file /usr/local/hpc5/psi4conda/envs/p4env/share/psi4/basis/cc-pvdz-jkfit.gbs

    Orbital Energies (a.u.)
    -----------------------

    Doubly Occupied:

       1A    -20.555376     2A    -11.266760     3A     -1.360291
       4A     -0.926848     5A     -0.693626     6A     -0.620848
       7A     -0.595337     8A     -0.497346     9A     -0.443292

  @DF-RHF Final Energy:  -115.03535414347601

   => Energetics <=

    Nuclear Repulsion Energy =             40.7863870532766128
    One-Electron Energy =                -237.7240367413003810
    Two-Electron Energy =                  81.9022955445477692
    DFT Exchange-Correlation Energy =       0.0000000000000000
    Empirical Dispersion Energy =           0.0000000000000000
    PCM Polarization Energy =               0.0000000000000000
    EFP Energy =                            0.0000000000000000
    Total Energy =                       -115.0353541434760132
    Molecular point group: c1
  Basis Set: file /usr/local/hpc5/psi4conda/envs/p4env/share/psi4/basis/6-31g_d_.gbs
  Basis Set: file /usr/local/hpc5/psi4conda/envs/p4env/share/psi4/basis/cc-pvdz-jkfit.gbs
  Basis Set: file /usr/local/hpc5/psi4conda/envs/p4env/share/psi4/basis/cc-pvdz-jkfit.gbs
    Molecular point group: c1

    Geometry (in Angstrom), charge = 0, multiplicity = 1:

       Center              X                  Y                   Z               Mass
    ------------   -----------------  -----------------  -----------------  -----------------
           C         -0.717169886130    -0.028221694508     0.004452327835    12.000000000000
           H         -1.091321641961    -0.576498367921    -0.856875672564     1.007825032070
           H         -1.113708927287     0.976801983697    -0.032397148070     1.007825032070
           H         -1.083040707832    -0.508489916123     0.908869000386     1.007825032070
           O          0.678415804156     0.077615785161    -0.006171283781    15.994914619560
           H          1.060339122161    -0.787601652874     0.025333467469     1.007825032070

  Basis Set: file /usr/local/hpc5/psi4conda/envs/p4env/share/psi4/basis/6-31g_d_.gbs
  Basis Set: file /usr/local/hpc5/psi4conda/envs/p4env/share/psi4/basis/cc-pvdz-jkfit.gbs
*** Psi4 exiting successfully. Buy a developer a beer!
