                               Psi4 1.1a2.dev170

  ==> Input File <==

--------------------------------------------------------------------------
memory 110 Gb

molecule molecule_2_psi {
0 1
    C           -0.719743990292     0.012301564546     0.005658769153
    H           -1.074916777877     1.038032036332    -0.018183723069
    H           -1.106621706473    -0.459864178762     0.901864569381
    H           -1.121239107053    -0.505833948326    -0.858132438726
    O            0.681563884978    -0.064329684129    -0.003984221719
    H            1.055732526594     0.802152239195    -0.029693912495
}

set globals {
  reference rhf
  opt_type ts
  basis 6-31G(d)
}
frequency('scf')
--------------------------------------------------------------------------

    Molecular point group: c1
  Charge       = 0
  Multiplicity = 1
  Basis Set: file /usr/local/hpc5/psi4conda/envs/p4env/share/psi4/basis/6-31g_d_.gbs
  Basis Set: file /usr/local/hpc5/psi4conda/envs/p4env/share/psi4/basis/cc-pvdz-jkfit.gbs

    Orbital Energies (a.u.)
    -----------------------

    Doubly Occupied:

       1A    -20.553151     2A    -11.266827     3A     -1.357958
       4A     -0.927258     5A     -0.693491     6A     -0.619197
       7A     -0.595952     8A     -0.496892     9A     -0.440948

  @DF-RHF Final Energy:  -115.03318804622128

   => Energetics <=

    Nuclear Repulsion Energy =             40.7275980624984797
    One-Electron Energy =                -237.6182221953711746
    Two-Electron Energy =                  81.8574360866514041
    DFT Exchange-Correlation Energy =       0.0000000000000000
    Empirical Dispersion Energy =           0.0000000000000000
    PCM Polarization Energy =               0.0000000000000000
    EFP Energy =                            0.0000000000000000
    Total Energy =                       -115.0331880462212837
    Molecular point group: c1
  Basis Set: file /usr/local/hpc5/psi4conda/envs/p4env/share/psi4/basis/6-31g_d_.gbs
  Basis Set: file /usr/local/hpc5/psi4conda/envs/p4env/share/psi4/basis/cc-pvdz-jkfit.gbs
  Basis Set: file /usr/local/hpc5/psi4conda/envs/p4env/share/psi4/basis/cc-pvdz-jkfit.gbs
    Molecular point group: c1

    Geometry (in Angstrom), charge = 0, multiplicity = 1:

       Center              X                  Y                   Z               Mass
    ------------   -----------------  -----------------  -----------------  -----------------
           C         -0.719743990292     0.012301564546     0.005658769153    12.000000000000
           H         -1.074916777877     1.038032036332    -0.018183723069     1.007825032070
           H         -1.106621706473    -0.459864178762     0.901864569381     1.007825032070
           H         -1.121239107053    -0.505833948326    -0.858132438726     1.007825032070
           O          0.681563884978    -0.064329684129    -0.003984221719    15.994914619560
           H          1.055732526594     0.802152239195    -0.029693912495     1.007825032070

  Basis Set: file /usr/local/hpc5/psi4conda/envs/p4env/share/psi4/basis/6-31g_d_.gbs
  Basis Set: file /usr/local/hpc5/psi4conda/envs/p4env/share/psi4/basis/cc-pvdz-jkfit.gbs
*** Psi4 exiting successfully. Buy a developer a beer!
