                               Psi4 1.1a2.dev170

  ==> Input File <==

--------------------------------------------------------------------------
memory 110 Gb

molecule molecule_2 {
0 1
C         -0.72000        0.01200        0.00600
H         -1.07500        1.03800       -0.01800
H         -1.10700       -0.46000        0.90200
H         -1.12100       -0.50600       -0.85800
O          0.68200       -0.06400       -0.00400
H          1.05500        0.80200       -0.03000
}

set globals {
  reference rhf
  opt_type ts
  g_convergence gau_tight
  basis 6-31G(d)
}
optimize('scf')
--------------------------------------------------------------------------

    Molecular point group: c1
  Charge       = 0
  Multiplicity = 1
  Basis Set: file /usr/local/hpc5/psi4conda/envs/p4env/share/psi4/basis/6-31g_d_.gbs
  Basis Set: file /usr/local/hpc5/psi4conda/envs/p4env/share/psi4/basis/cc-pvdz-jkfit.gbs
  @DF-RHF Final Energy:  -115.03318666937150
    Total Energy =                       -115.0331866693715028
    Molecular point group: c1
  Basis Set: file /usr/local/hpc5/psi4conda/envs/p4env/share/psi4/basis/6-31g_d_.gbs
  Basis Set: file /usr/local/hpc5/psi4conda/envs/p4env/share/psi4/basis/cc-pvdz-jkfit.gbs
  Basis Set: file /usr/local/hpc5/psi4conda/envs/p4env/share/psi4/basis/6-31g_d_.gbs
  Basis Set: file /usr/local/hpc5/psi4conda/envs/p4env/share/psi4/basis/cc-pvdz-jkfit.gbs
  @DF-RHF Final Energy:  -115.03318798190331
    Total Energy =                       -115.0331879819033105
  Basis Set: file /usr/local/hpc5/psi4conda/envs/p4env/share/psi4/basis/6-31g_d_.gbs
  Basis Set: file /usr/local/hpc5/psi4conda/envs/p4env/share/psi4/basis/cc-pvdz-jkfit.gbs
  Basis Set: file /usr/local/hpc5/psi4conda/envs/p4env/share/psi4/basis/6-31g_d_.gbs
  Basis Set: file /usr/local/hpc5/psi4conda/envs/p4env/share/psi4/basis/cc-pvdz-jkfit.gbs
  @DF-RHF Final Energy:  -115.03318804302799
    Total Energy =                       -115.0331880430279909
  Basis Set: file /usr/local/hpc5/psi4conda/envs/p4env/share/psi4/basis/6-31g_d_.gbs
  Basis Set: file /usr/local/hpc5/psi4conda/envs/p4env/share/psi4/basis/cc-pvdz-jkfit.gbs
  Basis Set: file /usr/local/hpc5/psi4conda/envs/p4env/share/psi4/basis/6-31g_d_.gbs
  Basis Set: file /usr/local/hpc5/psi4conda/envs/p4env/share/psi4/basis/cc-pvdz-jkfit.gbs
  @DF-RHF Final Energy:  -115.03318804338163
    Total Energy =                       -115.0331880433816281
  Basis Set: file /usr/local/hpc5/psi4conda/envs/p4env/share/psi4/basis/6-31g_d_.gbs
  Basis Set: file /usr/local/hpc5/psi4conda/envs/p4env/share/psi4/basis/cc-pvdz-jkfit.gbs
  @DF-RHF Final Energy:  -115.03318804575476
    Total Energy =                       -115.0331880457547555
  @DF-RHF Final Energy:  -115.03318804686771
    Total Energy =                       -115.0331880468677070
  @DF-RHF Final Energy:  -115.03318804590759
    Total Energy =                       -115.0331880459075933
  @DF-RHF Final Energy:  -115.03318804401808
    Total Energy =                       -115.0331880440180754
  @DF-RHF Final Energy:  -115.03318804596745
    Total Energy =                       -115.0331880459674494
  @DF-RHF Final Energy:  -115.03318804623915
    Total Energy =                       -115.0331880462391467
  Basis Set: file /usr/local/hpc5/psi4conda/envs/p4env/share/psi4/basis/6-31g_d_.gbs
  Basis Set: file /usr/local/hpc5/psi4conda/envs/p4env/share/psi4/basis/cc-pvdz-jkfit.gbs
  @DF-RHF Final Energy:  -115.03318804617493
    Total Energy =                       -115.0331880461749279
  Basis Set: file /usr/local/hpc5/psi4conda/envs/p4env/share/psi4/basis/6-31g_d_.gbs
  Basis Set: file /usr/local/hpc5/psi4conda/envs/p4env/share/psi4/basis/cc-pvdz-jkfit.gbs
  Basis Set: file /usr/local/hpc5/psi4conda/envs/p4env/share/psi4/basis/6-31g_d_.gbs
  Basis Set: file /usr/local/hpc5/psi4conda/envs/p4env/share/psi4/basis/cc-pvdz-jkfit.gbs
  @DF-RHF Final Energy:  -115.03318804621310
    Total Energy =                       -115.0331880462130982
  Basis Set: file /usr/local/hpc5/psi4conda/envs/p4env/share/psi4/basis/6-31g_d_.gbs
  Basis Set: file /usr/local/hpc5/psi4conda/envs/p4env/share/psi4/basis/cc-pvdz-jkfit.gbs
  Basis Set: file /usr/local/hpc5/psi4conda/envs/p4env/share/psi4/basis/6-31g_d_.gbs
  Basis Set: file /usr/local/hpc5/psi4conda/envs/p4env/share/psi4/basis/cc-pvdz-jkfit.gbs
  @DF-RHF Final Energy:  -115.03318804620692
    Total Energy =                       -115.0331880462069165
  Basis Set: file /usr/local/hpc5/psi4conda/envs/p4env/share/psi4/basis/6-31g_d_.gbs
  Basis Set: file /usr/local/hpc5/psi4conda/envs/p4env/share/psi4/basis/cc-pvdz-jkfit.gbs
  Charge       = 0
  Multiplicity = 1
  Basis Set: file /usr/local/hpc5/psi4conda/envs/p4env/share/psi4/basis/6-31g_d_.gbs
  Basis Set: file /usr/local/hpc5/psi4conda/envs/p4env/share/psi4/basis/cc-pvdz-jkfit.gbs

    Orbital Energies (a.u.)
    -----------------------

    Doubly Occupied:

       1A    -20.553151     2A    -11.266827     3A     -1.357958
       4A     -0.927258     5A     -0.693491     6A     -0.619197
       7A     -0.595952     8A     -0.496892     9A     -0.440949

  @DF-RHF Final Energy:  -115.03318804620120

   => Energetics <=

    Nuclear Repulsion Energy =             40.7275980624905074
    One-Electron Energy =                -237.6182215611796096
    Two-Electron Energy =                  81.8574354524879055
    DFT Exchange-Correlation Energy =       0.0000000000000000
    Empirical Dispersion Energy =           0.0000000000000000
    PCM Polarization Energy =               0.0000000000000000
    EFP Energy =                            0.0000000000000000
    Total Energy =                       -115.0331880462012037
    Molecular point group: c1
  Basis Set: file /usr/local/hpc5/psi4conda/envs/p4env/share/psi4/basis/6-31g_d_.gbs
  Basis Set: file /usr/local/hpc5/psi4conda/envs/p4env/share/psi4/basis/cc-pvdz-jkfit.gbs

  -Total Gradient:
     Atom            X                  Y                   Z
    ------   -----------------  -----------------  -----------------
       1       -0.000002270800     0.000000561427     0.000000103947
       2        0.000000254406    -0.000000450150    -0.000000012511
       3       -0.000000004424    -0.000000177742    -0.000000115541
       4        0.000000383080     0.000000121012     0.000000188027
       5        0.000000969808    -0.000001163403     0.000000101892
       6        0.000000667928     0.000001108856    -0.000000265814

  **** Optimization is complete! (in 14 steps) ****
    Final optimized geometry and variables:
    Molecular point group: c1

    Geometry (in Angstrom), charge = 0, multiplicity = 1:

    C           -0.719743990292     0.012301564546     0.005658769153
    H           -1.074916777877     1.038032036332    -0.018183723069
    H           -1.106621706473    -0.459864178762     0.901864569381
    H           -1.121239107053    -0.505833948326    -0.858132438726
    O            0.681563884978    -0.064329684129    -0.003984221719
    H            1.055732526594     0.802152239195    -0.029693912495

*** Psi4 exiting successfully. Buy a developer a beer!
