                               Psi4 1.1a2.dev170

  ==> Input File <==

--------------------------------------------------------------------------
memory 110 Gb

molecule molecule_2 {
0 1
C         -0.72000        0.01200        0.00600
H         -1.07500        1.03800       -0.01800
H         -1.10700       -0.46000        0.90200
H         -1.12100       -0.50600       -0.85800
O          0.68200       -0.06400       -0.00400
H          1.05600        0.80200       -0.03000
}

set globals {
  reference rhf
  opt_type ts
  g_convergence gau_tight
  basis cc-pvtz
  freeze_core true
}
optimize('mp2')
--------------------------------------------------------------------------

    Molecular point group: c1
  Charge       = 0
  Multiplicity = 1
  Basis Set: file /usr/local/hpc5/psi4conda/envs/p4env/share/psi4/basis/cc-pvtz.gbs
  Basis Set: file /usr/local/hpc5/psi4conda/envs/p4env/share/psi4/basis/cc-pvtz-jkfit.gbs
  @DF-RHF Final Energy:  -115.08836933884710
    Total Energy =                       -115.0883693388471016
  Basis Set: file /usr/local/hpc5/psi4conda/envs/p4env/share/psi4/basis/cc-pvtz-ri.gbs
    Molecular point group: c1
  Basis Set: file /usr/local/hpc5/psi4conda/envs/p4env/share/psi4/basis/cc-pvtz.gbs
  Basis Set: file /usr/local/hpc5/psi4conda/envs/p4env/share/psi4/basis/cc-pvtz-jkfit.gbs
  Basis Set: file /usr/local/hpc5/psi4conda/envs/p4env/share/psi4/basis/cc-pvtz-jkfit.gbs
	 Reference Energy          =    -115.0883693388471016 [Eh]
	 Singles Energy            =      -0.0000000000000000 [Eh]
	 Same-Spin Energy          =      -0.0979667968686326 [Eh]
	 Opposite-Spin Energy      =      -0.3287120645555431 [Eh]
	 Correlation Energy        =      -0.4266788614241758 [Eh]
	 Total Energy              =    -115.5150482002712806 [Eh]
	 SCS Total Energy          =    -115.5154794152699651 [Eh]
  Basis Set: file /usr/local/hpc5/psi4conda/envs/p4env/share/psi4/basis/cc-pvtz.gbs
  Basis Set: file /usr/local/hpc5/psi4conda/envs/p4env/share/psi4/basis/cc-pvtz-jkfit.gbs
  @DF-RHF Final Energy:  -115.08769263430939
    Total Energy =                       -115.0876926343093913
  Basis Set: file /usr/local/hpc5/psi4conda/envs/p4env/share/psi4/basis/cc-pvtz-ri.gbs
  Basis Set: file /usr/local/hpc5/psi4conda/envs/p4env/share/psi4/basis/cc-pvtz.gbs
  Basis Set: file /usr/local/hpc5/psi4conda/envs/p4env/share/psi4/basis/cc-pvtz-jkfit.gbs
  @DF-RHF Final Energy:  -115.08753688318826
    Total Energy =                       -115.0875368831882639
  @DF-RHF Final Energy:  -115.08753658052430
    Total Energy =                       -115.0875365805243007
  @DF-RHF Final Energy:  -115.08752773671213
    Total Energy =                       -115.0875277367121328
  @DF-RHF Final Energy:  -115.08752874008186
    Total Energy =                       -115.0875287400818650
  @DF-RHF Final Energy:  -115.08752743281323
    Total Energy =                       -115.0875274328132321
  @DF-RHF Final Energy:  -115.08752626941551
    Total Energy =                       -115.0875262694155055
  @DF-RHF Final Energy:  -115.08752615404863
    Total Energy =                       -115.0875261540486321
  @DF-RHF Final Energy:  -115.08752614675562
    Total Energy =                       -115.0875261467556214
	 Singles Energy            =      -0.0000000000000000 [Eh]
	 Same-Spin Energy          =      -0.0982085673143602 [Eh]
	 Opposite-Spin Energy      =      -0.3298229950216338 [Eh]
	 Correlation Energy        =      -0.4280315623359940 [Eh]
	 Total Energy              =    -115.5155577090916097 [Eh]
	 SCS Total Energy          =    -115.5160499298863641 [Eh]
  Charge       = 0
  Multiplicity = 1
  Basis Set: file /usr/local/hpc5/psi4conda/envs/p4env/share/psi4/basis/cc-pvtz.gbs
  Basis Set: file /usr/local/hpc5/psi4conda/envs/p4env/share/psi4/basis/cc-pvtz-jkfit.gbs

    Orbital Energies (a.u.)
    -----------------------

    Doubly Occupied:

       1A    -20.550570     2A    -11.268411     3A     -1.353064
       4A     -0.924424     5A     -0.688893     6A     -0.617017
       7A     -0.591906     8A     -0.501976     9A     -0.447202

  @DF-RHF Final Energy:  -115.08752614349645

   => Energetics <=

    Nuclear Repulsion Energy =             40.3325116559001344
    One-Electron Energy =                -236.9531533284240652
    Two-Electron Energy =                  81.5331155290274836
    DFT Exchange-Correlation Energy =       0.0000000000000000
    Empirical Dispersion Energy =           0.0000000000000000
    PCM Polarization Energy =               0.0000000000000000
    EFP Energy =                            0.0000000000000000
    Total Energy =                       -115.0875261434964472
  Basis Set: file /usr/local/hpc5/psi4conda/envs/p4env/share/psi4/basis/cc-pvtz-ri.gbs
    Molecular point group: c1
  Basis Set: file /usr/local/hpc5/psi4conda/envs/p4env/share/psi4/basis/cc-pvtz.gbs
  Basis Set: file /usr/local/hpc5/psi4conda/envs/p4env/share/psi4/basis/cc-pvtz-jkfit.gbs
  Basis Set: file /usr/local/hpc5/psi4conda/envs/p4env/share/psi4/basis/cc-pvtz-jkfit.gbs
	 Reference Energy          =    -115.0875261434964472 [Eh]
	 Singles Energy            =      -0.0000000000000000 [Eh]
	 Same-Spin Energy          =      -0.0982085637385606 [Eh]
	 Opposite-Spin Energy      =      -0.3298230018678829 [Eh]
	 Correlation Energy        =      -0.4280315656064435 [Eh]
	 Total Energy              =    -115.5155577091028931 [Eh]

	 ================> DF-SCS-MP2 Energies <==================
	-----------------------------------------------------------
	 SCS Same-Spin Scale       =       0.3333333333333333 [-]
	 SCS Opposite-Spin Scale   =       1.2000000000000000 [-]
	 SCS Same-Spin Energy      =      -0.0327361879128535 [Eh]
	 SCS Opposite-Spin Energy  =      -0.3957876022414594 [Eh]
	 SCS Correlation Energy    =      -0.4285237901543130 [Eh]
	 SCS Total Energy          =    -115.5160499336507627 [Eh]
	-----------------------------------------------------------

  -Total Gradient:
     Atom            X                  Y                   Z
    ------   -----------------  -----------------  -----------------
       1        0.000000045924    -0.000000424365     0.000000086956
       2        0.000000153893    -0.000000050773    -0.000000020516
       3       -0.000000253139     0.000000048520     0.000000024536
       4       -0.000000190267     0.000000057318    -0.000000032051
       5        0.000000063870     0.000000312186    -0.000000060719
       6        0.000000179722     0.000000057114     0.000000001795

  **** Optimization is complete! (in 11 steps) ****
    Final optimized geometry and variables:
    Molecular point group: c1

    Geometry (in Angstrom), charge = 0, multiplicity = 1:

    C           -0.728381839333     0.017256534899     0.004732576046
    H           -1.079945461294     1.047794235311    -0.018144441704
    H           -1.121882807536    -0.454924092739     0.903415223900
    H           -1.134396343725    -0.498427273167    -0.863973648479
    O            0.691154765295    -0.070590501466    -0.003156050117
    H            1.039814705921     0.820409010399    -0.027558300286

*** Psi4 exiting successfully. Buy a developer a beer!
