                               Psi4 1.1a2.dev170

  ==> Input File <==

--------------------------------------------------------------------------
memory 55 Gb

molecule molecule_1_psi {
0 1
    C           -0.726034583426    -0.029112680939     0.004493291581
    H           -1.107094418177    -0.572882198611    -0.861591773846
    H           -1.118069848546     0.982524897947    -0.030714915281
    H           -1.098725257575    -0.507926220663     0.911595585927
    O            0.688298058359     0.079139752979    -0.006147479214
    H            1.044869255839    -0.811082084291     0.024775206364
}

set globals {
  reference rhf
  basis cc-pvtz
  freeze_core true
}
frequency('mp2')
--------------------------------------------------------------------------

    Molecular point group: c1
  Charge       = 0
  Multiplicity = 1
  Basis Set: file /usr/local/hpc5/psi4conda/envs/p4env/share/psi4/basis/cc-pvtz.gbs
  Basis Set: file /usr/local/hpc5/psi4conda/envs/p4env/share/psi4/basis/cc-pvtz-jkfit.gbs
  @DF-RHF Final Energy:  -115.08923963595313
    Total Energy =                       -115.0892396359531347
  Basis Set: file /usr/local/hpc5/psi4conda/envs/p4env/share/psi4/basis/cc-pvtz-ri.gbs
    Molecular point group: c1
  Basis Set: file /usr/local/hpc5/psi4conda/envs/p4env/share/psi4/basis/cc-pvtz.gbs
  Basis Set: file /usr/local/hpc5/psi4conda/envs/p4env/share/psi4/basis/cc-pvtz-jkfit.gbs
  Basis Set: file /usr/local/hpc5/psi4conda/envs/p4env/share/psi4/basis/cc-pvtz-jkfit.gbs
	 Reference Energy          =    -115.0892396359531347 [Eh]
	 Singles Energy            =      -0.0000000000000000 [Eh]
	 Same-Spin Energy          =      -0.0982332438104764 [Eh]
	 Opposite-Spin Energy      =      -0.3298866950242476 [Eh]
	 Correlation Energy        =      -0.4281199388347240 [Eh]
	 Total Energy              =    -115.5173595747878608 [Eh]
	 SCS Total Energy          =    -115.5178480845857223 [Eh]
  Basis Set: file /usr/local/hpc5/psi4conda/envs/p4env/share/psi4/basis/cc-pvtz.gbs
  Basis Set: file /usr/local/hpc5/psi4conda/envs/p4env/share/psi4/basis/cc-pvtz-jkfit.gbs
  @DF-RHF Final Energy:  -115.08926229084132
    Total Energy =                       -115.0892622908413188
  Basis Set: file /usr/local/hpc5/psi4conda/envs/p4env/share/psi4/basis/cc-pvtz-ri.gbs
  Basis Set: file /usr/local/hpc5/psi4conda/envs/p4env/share/psi4/basis/cc-pvtz.gbs
  Basis Set: file /usr/local/hpc5/psi4conda/envs/p4env/share/psi4/basis/cc-pvtz-jkfit.gbs
  @DF-RHF Final Energy:  -115.08923516369484
    Total Energy =                       -115.0892351636948376
  @DF-RHF Final Energy:  -115.08926425830927
    Total Energy =                       -115.0892642583092709
  @DF-RHF Final Energy:  -115.08925035278548
    Total Energy =                       -115.0892503527854842
  @DF-RHF Final Energy:  -115.08924923286179
    Total Energy =                       -115.0892492328617891
  @DF-RHF Final Energy:  -115.08923326940905
    Total Energy =                       -115.0892332694090499
  @DF-RHF Final Energy:  -115.08926697285011
    Total Energy =                       -115.0892669728501119
  @DF-RHF Final Energy:  -115.08923226430254
    Total Energy =                       -115.0892322643025381
  @DF-RHF Final Energy:  -115.08926679371358
    Total Energy =                       -115.0892667937135769
  @DF-RHF Final Energy:  -115.08923670766902
    Total Energy =                       -115.0892367076690164
  @DF-RHF Final Energy:  -115.08926149913394
    Total Energy =                       -115.0892614991339400
  @DF-RHF Final Energy:  -115.08923709002538
    Total Energy =                       -115.0892370900253781
  @DF-RHF Final Energy:  -115.08926256513118
    Total Energy =                       -115.0892625651311789
  @DF-RHF Final Energy:  -115.08925492607761
    Total Energy =                       -115.0892549260776150
  @DF-RHF Final Energy:  -115.08924297135202
    Total Energy =                       -115.0892429713520215
  @DF-RHF Final Energy:  -115.08924252724177
    Total Energy =                       -115.0892425272417654
  @DF-RHF Final Energy:  -115.08925959656688
    Total Energy =                       -115.0892595965668761
  @DF-RHF Final Energy:  -115.08922756423010
    Total Energy =                       -115.0892275642301001
  @DF-RHF Final Energy:  -115.08927096854030
    Total Energy =                       -115.0892709685403048
  @DF-RHF Final Energy:  -115.08922703517658
    Total Energy =                       -115.0892270351765774
  @DF-RHF Final Energy:  -115.08927450629240
    Total Energy =                       -115.0892745062923979
  @DF-RHF Final Energy:  -115.08913394836932
    Total Energy =                       -115.0891339483693230
  @DF-RHF Final Energy:  -115.08935538615590
    Total Energy =                       -115.0893553861559013
	 Singles Energy            =      -0.0000000000000000 [Eh]
	 Same-Spin Energy          =      -0.0982077399365392 [Eh]
	 Opposite-Spin Energy      =      -0.3297900847801261 [Eh]
	 Correlation Energy        =      -0.4279978247166653 [Eh]
	 Total Energy              =    -115.5173532108725709 [Eh]
	 SCS Total Energy          =    -115.5178394012042276 [Eh]
    Molecular point group: c1
  Charge       = 0
  Multiplicity = 1
  Basis Set: file /usr/local/hpc5/psi4conda/envs/p4env/share/psi4/basis/cc-pvtz.gbs
  Basis Set: file /usr/local/hpc5/psi4conda/envs/p4env/share/psi4/basis/cc-pvtz-jkfit.gbs

    Orbital Energies (a.u.)
    -----------------------

    Doubly Occupied:

       1A    -20.552444     2A    -11.268208     3A     -1.354808
       4A     -0.924078     5A     -0.688655     6A     -0.618611
       7A     -0.590730     8A     -0.502289     9A     -0.449193

  @DF-RHF Final Energy:  -115.08925183600292

   => Energetics <=

    Nuclear Repulsion Energy =             40.3828384097811721
    One-Electron Energy =                -237.0461501333439571
    Two-Electron Energy =                  81.5740598875598835
    DFT Exchange-Correlation Energy =       0.0000000000000000
    Empirical Dispersion Energy =           0.0000000000000000
    PCM Polarization Energy =               0.0000000000000000
    EFP Energy =                            0.0000000000000000
    Total Energy =                       -115.0892518360029158
  Basis Set: file /usr/local/hpc5/psi4conda/envs/p4env/share/psi4/basis/cc-pvtz-ri.gbs
    Molecular point group: c1

    Geometry (in Angstrom), charge = 0, multiplicity = 1:

       Center              X                  Y                   Z               Mass
    ------------   -----------------  -----------------  -----------------  -----------------
           C         -0.726034583426    -0.029112680939     0.004493291581    12.000000000000
           H         -1.107094418177    -0.572882198611    -0.861591773846     1.007825032070
           H         -1.118069848546     0.982524897947    -0.030714915281     1.007825032070
           H         -1.098725257575    -0.507926220663     0.911595585927     1.007825032070
           O          0.688298058359     0.079139752979    -0.006147479214    15.994914619560
           H          1.044869255839    -0.811082084291     0.024775206364     1.007825032070

  Basis Set: file /usr/local/hpc5/psi4conda/envs/p4env/share/psi4/basis/cc-pvtz.gbs
  Basis Set: file /usr/local/hpc5/psi4conda/envs/p4env/share/psi4/basis/cc-pvtz-jkfit.gbs
  Basis Set: file /usr/local/hpc5/psi4conda/envs/p4env/share/psi4/basis/cc-pvtz-jkfit.gbs
	 Reference Energy          =    -115.0892518360029158 [Eh]
	 Singles Energy            =      -0.0000000000000000 [Eh]
	 Same-Spin Energy          =      -0.0982339902423437 [Eh]
	 Opposite-Spin Energy      =      -0.3298745643706794 [Eh]
	 Correlation Energy        =      -0.4281085546130232 [Eh]
	 Total Energy              =    -115.5173603906159343 [Eh]

	 ================> DF-SCS-MP2 Energies <==================
	-----------------------------------------------------------
	 SCS Same-Spin Scale       =       0.3333333333333333 [-]
	 SCS Opposite-Spin Scale   =       1.2000000000000000 [-]
	 SCS Same-Spin Energy      =      -0.0327446634141146 [Eh]
	 SCS Opposite-Spin Energy  =      -0.3958494772448153 [Eh]
	 SCS Correlation Energy    =      -0.4285941406589299 [Eh]
	 SCS Total Energy          =    -115.5178459766618460 [Eh]
	-----------------------------------------------------------

  -Total Gradient:
     Atom            X                  Y                   Z
    ------   -----------------  -----------------  -----------------
       1        0.000002771176    -0.000005761162     0.000000147075
       2       -0.000000206843     0.000000330106    -0.000000290526
       3        0.000002459835     0.000001073756    -0.000000044385
       4       -0.000000200388     0.000000372781     0.000000293108
       5       -0.000001482070     0.000003444310    -0.000000074449
       6       -0.000003341710     0.000000540209    -0.000000030824

*** Psi4 exiting successfully. Buy a developer a beer!
