                               Psi4 1.1a2.dev170

  ==> Input File <==

--------------------------------------------------------------------------
memory 55 Gb

molecule molecule_1 {
0 1
C         -0.73000       -0.03100       -0.00300
H         -1.10500       -0.58000       -0.86400
H         -1.12700        0.97300       -0.04000
H         -1.09500       -0.51200        0.90200
O          0.66500        0.07500       -0.01400
H          1.04700       -0.79000        0.01700
}

set globals {
  reference rhf
  g_convergence gau_tight
  basis cc-pvtz
  freeze_core true
}
optimize('mp2')
--------------------------------------------------------------------------

    Molecular point group: c1
  Charge       = 0
  Multiplicity = 1
  Basis Set: file /usr/local/hpc5/psi4conda/envs/p4env/share/psi4/basis/cc-pvtz.gbs
  Basis Set: file /usr/local/hpc5/psi4conda/envs/p4env/share/psi4/basis/cc-pvtz-jkfit.gbs
  @DF-RHF Final Energy:  -115.09011501520978
    Total Energy =                       -115.0901150152097756
  Basis Set: file /usr/local/hpc5/psi4conda/envs/p4env/share/psi4/basis/cc-pvtz-ri.gbs
    Molecular point group: c1
  Basis Set: file /usr/local/hpc5/psi4conda/envs/p4env/share/psi4/basis/cc-pvtz.gbs
  Basis Set: file /usr/local/hpc5/psi4conda/envs/p4env/share/psi4/basis/cc-pvtz-jkfit.gbs
  Basis Set: file /usr/local/hpc5/psi4conda/envs/p4env/share/psi4/basis/cc-pvtz-jkfit.gbs
	 Reference Energy          =    -115.0901150152097756 [Eh]
	 Singles Energy            =      -0.0000000000000000 [Eh]
	 Same-Spin Energy          =      -0.0979861050355975 [Eh]
	 Opposite-Spin Energy      =      -0.3287340627534193 [Eh]
	 Correlation Energy        =      -0.4267201677890168 [Eh]
	 Total Energy              =    -115.5168351829987898 [Eh]
	 SCS Total Energy          =    -115.5172579255257403 [Eh]
  Basis Set: file /usr/local/hpc5/psi4conda/envs/p4env/share/psi4/basis/cc-pvtz.gbs
  Basis Set: file /usr/local/hpc5/psi4conda/envs/p4env/share/psi4/basis/cc-pvtz-jkfit.gbs
  @DF-RHF Final Energy:  -115.08938711365681
    Total Energy =                       -115.0893871136568123
  Basis Set: file /usr/local/hpc5/psi4conda/envs/p4env/share/psi4/basis/cc-pvtz-ri.gbs
  Basis Set: file /usr/local/hpc5/psi4conda/envs/p4env/share/psi4/basis/cc-pvtz.gbs
  Basis Set: file /usr/local/hpc5/psi4conda/envs/p4env/share/psi4/basis/cc-pvtz-jkfit.gbs
  @DF-RHF Final Energy:  -115.08926207706934
    Total Energy =                       -115.0892620770693355
  @DF-RHF Final Energy:  -115.08925258165945
    Total Energy =                       -115.0892525816594514
  @DF-RHF Final Energy:  -115.08925216363583
    Total Energy =                       -115.0892521636358339
	 Singles Energy            =      -0.0000000000000000 [Eh]
	 Same-Spin Energy          =      -0.0982338086546515 [Eh]
	 Opposite-Spin Energy      =      -0.3298744171606742 [Eh]
	 Correlation Energy        =      -0.4281082258153257 [Eh]
	 Total Energy              =    -115.5173603894511558 [Eh]
	 SCS Total Energy          =    -115.5178460671135241 [Eh]
  Charge       = 0
  Multiplicity = 1
  Basis Set: file /usr/local/hpc5/psi4conda/envs/p4env/share/psi4/basis/cc-pvtz.gbs
  Basis Set: file /usr/local/hpc5/psi4conda/envs/p4env/share/psi4/basis/cc-pvtz-jkfit.gbs

    Orbital Energies (a.u.)
    -----------------------

    Doubly Occupied:

       1A    -20.552444     2A    -11.268208     3A     -1.354808
       4A     -0.924078     5A     -0.688655     6A     -0.618611
       7A     -0.590730     8A     -0.502289     9A     -0.449193

  @DF-RHF Final Energy:  -115.08925183600034

   => Energetics <=

    Nuclear Repulsion Energy =             40.3828384097900752
    One-Electron Energy =                -237.0461501402137401
    Two-Electron Energy =                  81.5740598944233142
    DFT Exchange-Correlation Energy =       0.0000000000000000
    Empirical Dispersion Energy =           0.0000000000000000
    PCM Polarization Energy =               0.0000000000000000
    EFP Energy =                            0.0000000000000000
    Total Energy =                       -115.0892518360003436
  Basis Set: file /usr/local/hpc5/psi4conda/envs/p4env/share/psi4/basis/cc-pvtz-ri.gbs
    Molecular point group: c1
  Basis Set: file /usr/local/hpc5/psi4conda/envs/p4env/share/psi4/basis/cc-pvtz.gbs
  Basis Set: file /usr/local/hpc5/psi4conda/envs/p4env/share/psi4/basis/cc-pvtz-jkfit.gbs
  Basis Set: file /usr/local/hpc5/psi4conda/envs/p4env/share/psi4/basis/cc-pvtz-jkfit.gbs
	 Reference Energy          =    -115.0892518360003436 [Eh]
	 Singles Energy            =      -0.0000000000000000 [Eh]
	 Same-Spin Energy          =      -0.0982339902463273 [Eh]
	 Opposite-Spin Energy      =      -0.3298745643741007 [Eh]
	 Correlation Energy        =      -0.4281085546204281 [Eh]
	 Total Energy              =    -115.5173603906207660 [Eh]

	 ================> DF-SCS-MP2 Energies <==================
	-----------------------------------------------------------
	 SCS Same-Spin Scale       =       0.3333333333333333 [-]
	 SCS Opposite-Spin Scale   =       1.2000000000000000 [-]
	 SCS Same-Spin Energy      =      -0.0327446634154424 [Eh]
	 SCS Opposite-Spin Energy  =      -0.3958494772489209 [Eh]
	 SCS Correlation Energy    =      -0.4285941406643634 [Eh]
	 SCS Total Energy          =    -115.5178459766647023 [Eh]
	-----------------------------------------------------------

  -Total Gradient:
     Atom            X                  Y                   Z
    ------   -----------------  -----------------  -----------------
       1        0.000002771139    -0.000005761164     0.000000147152
       2       -0.000000206939     0.000000330091    -0.000000290591
       3        0.000002459905     0.000001073845    -0.000000044399
       4       -0.000000200483     0.000000372824     0.000000293078
       5       -0.000001481852     0.000003444249    -0.000000074750
       6       -0.000003341769     0.000000540156    -0.000000030490

  **** Optimization is complete! (in 6 steps) ****
    Final optimized geometry and variables:
    Molecular point group: c1

    Geometry (in Angstrom), charge = 0, multiplicity = 1:

    C           -0.726034583426    -0.029112680939     0.004493291581
    H           -1.107094418177    -0.572882198611    -0.861591773846
    H           -1.118069848546     0.982524897947    -0.030714915281
    H           -1.098725257575    -0.507926220663     0.911595585927
    O            0.688298058359     0.079139752979    -0.006147479214
    H            1.044869255839    -0.811082084291     0.024775206364

*** Psi4 exiting successfully. Buy a developer a beer!
