                               Psi4 1.2.1 release

  ==> Input File <==

--------------------------------------------------------------------------
memory 100 Gb

molecule conf_03 {
0 1
  C    -2.457211958400    -0.629798040500     0.388974479400
  H    -2.143010436200    -1.668192390000     0.473380849800
  H    -3.210795087000    -0.601472193300    -0.395512589700
  C    -3.086793806500    -0.185086576100     1.708630459800
  H    -3.443283131600     0.838977434000     1.646375462900
  H    -2.368021726200    -0.235217307100     2.521354901200
  H    -3.930780589900    -0.814429249900     1.973173647100
  C    -0.633482863800    -0.202532172500    -1.327663825200
  H    -1.371043357900    -0.159443409700    -2.128014414700
  H    -0.294509413100    -1.234900984800    -1.252001208700
  O     0.445507193300     0.652961785900    -1.603369799600
  H     0.853772233600     0.397813912100    -2.418325224700
  C    -1.263005254500     0.234946692100    -0.016961888700
  H    -1.569138967100     1.273120724600    -0.113436077500
  H    -0.500202834900     0.205251775200     0.756395228700
}
set globals {
  reference rhf
  g_convergence gau_tight
  basis 6-31G(d)
}
optimize('scf')

--------------------------------------------------------------------------

    Molecular point group: c1
  Charge       = 0
  Multiplicity = 1
  Basis Set: 6-31G(D)
    Blend: 6-31G(D)
  Basis Set: (6-31G(D) AUX)
    Blend: CC-PVDZ-JKFIT
  @DF-RHF Final Energy:  -232.14500015651691
    Total Energy =                       -232.1450001565169146
    Molecular point group: c1
  Basis Set: 6-31G(D)
    Blend: 6-31G(D)
  Basis Set: (6-31G(D) AUX)
    Blend: CC-PVDZ-JKFIT
  Charge       = 0
  Multiplicity = 1
  Basis Set: 6-31G(D)
    Blend: 6-31G(D)
  Basis Set: (6-31G(D) AUX)
    Blend: CC-PVDZ-JKFIT

    Orbital Energies [Eh]
    ---------------------

    Doubly Occupied:

       1A    -20.552165     2A    -11.267444     3A    -11.218594
       4A    -11.211092     5A    -11.209823     6A     -1.359019
       7A     -1.070309     8A     -0.974660     9A     -0.855443
      10A     -0.795993    11A     -0.691771    12A     -0.660085
      13A     -0.603317    14A     -0.592438    15A     -0.560661
      16A     -0.522205    17A     -0.510286    18A     -0.474670
      19A     -0.470170    20A     -0.461455    21A     -0.434466

  @DF-RHF Final Energy:  -232.14500016620872

   => Energetics <=

    Nuclear Repulsion Energy =            185.7617201284203645
    One-Electron Energy =                -682.8213069616922439
    Two-Electron Energy =                 264.9145866670631335
    Total Energy =                       -232.1450001662087175

  Dipole Moment: [D]
     X:    -0.5016      Y:    -1.2944      Z:    -0.9726     Total:     1.6950

    Molecular point group: c1
  Basis Set: 6-31G(D)
    Blend: 6-31G(D)
  Basis Set: (6-31G(D) AUX)
    Blend: CC-PVDZ-JKFIT

  -Total Gradient:
     Atom            X                  Y                   Z
    ------   -----------------  -----------------  -----------------
       1        0.000000282398     0.000003479126     0.000003849792
       2        0.000000256251    -0.000000400342     0.000000489835
       3       -0.000000519617     0.000000398381    -0.000000164614
       4        0.000003136722    -0.000000996471    -0.000005042432
       5        0.000000092031     0.000000165847    -0.000000362947
       6        0.000000369815    -0.000000089178    -0.000000143268
       7        0.000001125405    -0.000000023776    -0.000001393173
       8        0.000010501664     0.000013485576     0.000003678480
       9       -0.000004600778    -0.000002865262     0.000000803240
      10       -0.000003788183    -0.000003691272     0.000001464652
      11       -0.000005309060    -0.000006596247    -0.000001578473
      12        0.000004261802     0.000003837024    -0.000000544773
      13       -0.000007719962    -0.000007555658     0.000000250243
      14        0.000000341201     0.000001034791    -0.000001145954
      15        0.000001570309    -0.000000182537    -0.000000160606

  **** Optimization is complete! (in 2 steps) ****
    Final optimized geometry and variables:
    Molecular point group: c1

    Geometry (in Angstrom), charge = 0, multiplicity = 1:

    C           -1.103426334780    -0.616840226742     0.598721917086
    H           -0.789220099410    -1.655216941243     0.683175492438
    H           -1.857023172790    -0.588477595108    -0.185734274002
    C           -1.732990735624    -0.172121353565     1.918364201957
    H           -2.089488708919     0.851928635962     1.856085212357
    H           -1.014214692511    -0.222267842446     2.731072125714
    H           -2.576964984056    -0.801476446115     2.182885351612
    C            0.720224271344    -0.189598707880    -1.117850413839
    H           -0.017355460102    -0.146492515449    -1.918148485694
    H            1.059171122593    -1.221946655185    -1.042141848205
    O            1.799279716653     0.665908510747    -1.393616844024
    H            2.207603725745     0.410835911913    -2.208556657027
    C            0.090756150539     0.247922348668     0.192839203863
    H           -0.215406494675     1.286068077887     0.096331312905
    H            0.853551139348     0.218174841994     0.966179213513

*** Psi4 exiting successfully. Buy a developer a beer!
