                               Psi4 1.2.1 release

  ==> Input File <==

--------------------------------------------------------------------------
memory 100 Gb

molecule conf_02 {
0 1
  C    -1.112812516963    -0.620226798266     0.583651597878
  H    -0.798887225492    -1.659476809617     0.656810237316
  H    -1.852416375753    -0.580385096333    -0.213149306258
  C    -1.764553667056    -0.195585985165     1.899078211381
  H    -2.120744173907     0.829047519097     1.846307240009
  H    -1.060111402845    -0.258171311576     2.723592018685
  H    -2.612408780580    -0.829232686866     2.139410222568
  C     0.739061429462    -0.172379503346    -1.105013468363
  H     0.024253680881    -0.108235324034    -1.915847716530
  H     1.066205625558    -1.209694595461    -1.045180310239
  O     1.807095088879     0.662006749014    -1.470395543799
  H     2.496067096484     0.590941766335    -0.824475920427
  C     0.086342198013     0.250634892610     0.205265053676
  H    -0.218244234791     1.290172387335     0.117915032456
  H     0.828741979466     0.210476174540     1.002574547624
}
set globals {
  reference rhf
  basis 6-31G(d)
}
frequency('scf', dertype=1)

--------------------------------------------------------------------------

    Molecular point group: c1
  Charge       = 0
  Multiplicity = 1
  Basis Set: 6-31G(D)
    Blend: 6-31G(D)
  Basis Set: (6-31G(D) AUX)
    Blend: CC-PVDZ-JKFIT
  @DF-RHF Final Energy:  -232.14496828927753
    Total Energy =                       -232.1449682892775286
    Molecular point group: c1
  Basis Set: 6-31G(D)
    Blend: 6-31G(D)
  Basis Set: (6-31G(D) AUX)
    Blend: CC-PVDZ-JKFIT
  Basis Set: 6-31G(D)
    Blend: 6-31G(D)
  Basis Set: (6-31G(D) AUX)
    Blend: CC-PVDZ-JKFIT
  @DF-RHF Final Energy:  -232.14496748304421
    Total Energy =                       -232.1449674830441836
  Basis Set: 6-31G(D)
    Blend: 6-31G(D)
  Basis Set: (6-31G(D) AUX)
    Blend: CC-PVDZ-JKFIT
  Basis Set: 6-31G(D)
    Blend: 6-31G(D)
  @DF-RHF Final Energy:  -232.14496748361353
    Total Energy =                       -232.1449674836135273
  @DF-RHF Final Energy:  -232.14496735748520
    Total Energy =                       -232.1449673574852000
  @DF-RHF Final Energy:  -232.14496735794506
    Total Energy =                       -232.1449673579450632
  @DF-RHF Final Energy:  -232.14496741839491
    Total Energy =                       -232.1449674183949128
  @DF-RHF Final Energy:  -232.14496741995919
    Total Energy =                       -232.1449674199591868
  @DF-RHF Final Energy:  -232.14496721263185
    Total Energy =                       -232.1449672126318546
  @DF-RHF Final Energy:  -232.14496721165955
    Total Energy =                       -232.1449672116595480
  @DF-RHF Final Energy:  -232.14496422369305
    Total Energy =                       -232.1449642236930231
  @DF-RHF Final Energy:  -232.14496418553225
    Total Energy =                       -232.1449641855322170
  @DF-RHF Final Energy:  -232.14496747082006
    Total Energy =                       -232.1449674708200632
  @DF-RHF Final Energy:  -232.14496746893539
    Total Energy =                       -232.1449674689353628
  @DF-RHF Final Energy:  -232.14496585528792
    Total Energy =                       -232.1449658552879214
  @DF-RHF Final Energy:  -232.14496584627545
    Total Energy =                       -232.1449658462754542
  @DF-RHF Final Energy:  -232.14496763716647
    Total Energy =                       -232.1449676371664737
  @DF-RHF Final Energy:  -232.14496763623828
    Total Energy =                       -232.1449676362382775
  @DF-RHF Final Energy:  -232.14496558229098
    Total Energy =                       -232.1449655822909790
  @DF-RHF Final Energy:  -232.14496557039081
    Total Energy =                       -232.1449655703908093
  @DF-RHF Final Energy:  -232.14496721551933
    Total Energy =                       -232.1449672155193298
  @DF-RHF Final Energy:  -232.14496763591984
    Total Energy =                       -232.1449676359198406
  @DF-RHF Final Energy:  -232.14496697528699
    Total Energy =                       -232.1449669752869909
  @DF-RHF Final Energy:  -232.14496697121177
    Total Energy =                       -232.1449669712117725
  @DF-RHF Final Energy:  -232.14496756593107
    Total Energy =                       -232.1449675659310969
  @DF-RHF Final Energy:  -232.14496756317175
    Total Energy =                       -232.1449675631717469
  @DF-RHF Final Energy:  -232.14496338883163
    Total Energy =                       -232.1449633888316271
  @DF-RHF Final Energy:  -232.14496334838918
    Total Energy =                       -232.1449633483891830
  @DF-RHF Final Energy:  -232.14496645507865
    Total Energy =                       -232.1449664550786451
  @DF-RHF Final Energy:  -232.14496645114264
    Total Energy =                       -232.1449664511426363
  @DF-RHF Final Energy:  -232.14496740608590
    Total Energy =                       -232.1449674060859252
  @DF-RHF Final Energy:  -232.14496740806578
    Total Energy =                       -232.1449674080657815
  @DF-RHF Final Energy:  -232.14496698253674
    Total Energy =                       -232.1449669825367437
  @DF-RHF Final Energy:  -232.14496698239367
    Total Energy =                       -232.1449669823936688
  @DF-RHF Final Energy:  -232.14496418131986
    Total Energy =                       -232.1449641813198923
  @DF-RHF Final Energy:  -232.14496415284140
    Total Energy =                       -232.1449641528413963
  @DF-RHF Final Energy:  -232.14496494340233
    Total Energy =                       -232.1449649434023286
  @DF-RHF Final Energy:  -232.14496492001041
    Total Energy =                       -232.1449649200104091
  @DF-RHF Final Energy:  -232.14496479686687
    Total Energy =                       -232.1449647968668728
  Basis Set: (6-31G(D) AUX)
    Blend: CC-PVDZ-JKFIT
  Basis Set: 6-31G(D)
    Blend: 6-31G(D)
  Basis Set: (6-31G(D) AUX)
    Blend: CC-PVDZ-JKFIT
  @DF-RHF Final Energy:  -232.14496478074312
    Total Energy =                       -232.1449647807431234
  Basis Set: 6-31G(D)
    Blend: 6-31G(D)
  Basis Set: (6-31G(D) AUX)
    Blend: CC-PVDZ-JKFIT
    Molecular point group: c1
  Charge       = 0
  Multiplicity = 1
  Basis Set: 6-31G(D)
    Blend: 6-31G(D)
  Basis Set: (6-31G(D) AUX)
    Blend: CC-PVDZ-JKFIT

    Orbital Energies [Eh]
    ---------------------

    Doubly Occupied:

       1A    -20.552585     2A    -11.267266     3A    -11.222533
       4A    -11.217183     5A    -11.213463     6A     -1.359543
       7A     -1.073530     8A     -0.975589     9A     -0.863175
      10A     -0.804201    11A     -0.693052    12A     -0.641314
      13A     -0.611799    14A     -0.599361    15A     -0.552943
      16A     -0.541628    17A     -0.515235    18A     -0.481720
      19A     -0.477498    20A     -0.465764    21A     -0.426519

  @DF-RHF Final Energy:  -232.14496828909256

   => Energetics <=

    Nuclear Repulsion Energy =            185.5563797710107963
    One-Electron Energy =                -682.2908995129462255
    Two-Electron Energy =                 264.5895514528428407
    Total Energy =                       -232.1449682890925601

  Dipole Moment: [D]
     X:    -0.1659      Y:    -0.9980      Z:     1.5564     Total:     1.8563

    Molecular point group: c1

    Geometry (in Angstrom), charge = 0, multiplicity = 1:

       Center              X                  Y                   Z               Mass
    ------------   -----------------  -----------------  -----------------  -----------------
         C           -1.112812516963    -0.620226798266     0.583651597878    12.000000000000
         H           -0.798887225492    -1.659476809617     0.656810237316     1.007825032070
         H           -1.852416375753    -0.580385096333    -0.213149306258     1.007825032070
         C           -1.764553667056    -0.195585985165     1.899078211381    12.000000000000
         H           -2.120744173907     0.829047519097     1.846307240009     1.007825032070
         H           -1.060111402845    -0.258171311576     2.723592018685     1.007825032070
         H           -2.612408780580    -0.829232686866     2.139410222568     1.007825032070
         C            0.739061429462    -0.172379503346    -1.105013468363    12.000000000000
         H            0.024253680881    -0.108235324034    -1.915847716530     1.007825032070
         H            1.066205625558    -1.209694595461    -1.045180310239     1.007825032070
         O            1.807095088879     0.662006749014    -1.470395543799    15.994914619560
         H            2.496067096484     0.590941766335    -0.824475920427     1.007825032070
         C            0.086342198013     0.250634892610     0.205265053676    12.000000000000
         H           -0.218244234791     1.290172387335     0.117915032456     1.007825032070
         H            0.828741979466     0.210476174540     1.002574547624     1.007825032070

  Basis Set: 6-31G(D)
    Blend: 6-31G(D)
  Basis Set: (6-31G(D) AUX)
    Blend: CC-PVDZ-JKFIT

  -Total Gradient:
     Atom            X                  Y                   Z
    ------   -----------------  -----------------  -----------------
       1       -0.000000385809     0.000000359775    -0.000000415216
       2       -0.000000092519     0.000000071834     0.000000111036
       3        0.000000054354     0.000000023960    -0.000000098227
       4        0.000000118577    -0.000000080438     0.000000122844
       5       -0.000000200029    -0.000000068076    -0.000000088710
       6        0.000000039548     0.000000187178    -0.000000071319
       7        0.000000138796    -0.000000103317     0.000000070357
       8       -0.000000162507    -0.000000266316     0.000000033074
       9       -0.000000021701    -0.000000047399     0.000000016107
      10        0.000000006162     0.000000099900     0.000000060940
      11        0.000000105906     0.000000192581    -0.000000030633
      12       -0.000000009897     0.000000033257    -0.000000050386
      13        0.000000269371    -0.000000202464     0.000000215907
      14       -0.000000041389    -0.000000167905     0.000000178183
      15        0.000000181134    -0.000000032571    -0.000000053956

  Vibration                       7                   8                   9
  Freq [cm^-1]                 116.2091            131.8913            198.7064
  Irrep                           A                   A                   A
  Reduced mass [u]              1.9432              2.1786              3.0130
  Force const [mDyne/A]         0.0155              0.0223              0.0701

  Vibration                       10                  11                  12
  Freq [cm^-1]                 266.0359            323.0121            417.4257
  Irrep                           A                   A                   A
  Reduced mass [u]              1.1254              1.1212              3.4007
  Force const [mDyne/A]         0.0469              0.0689              0.3491

  Vibration                       13                  14                  15
  Freq [cm^-1]                 479.2569            795.1617            868.2191
  Irrep                           A                   A                   A
  Reduced mass [u]              3.5286              1.0705              1.1343
  Force const [mDyne/A]         0.4775              0.3988              0.5038

  Vibration                       16                  17                  18
  Freq [cm^-1]                 977.5109           1026.7374           1080.2568
  Irrep                           A                   A                   A
  Reduced mass [u]              1.8642              1.1553              3.4751
  Force const [mDyne/A]         1.0495              0.7176              2.3893

  Vibration                       19                  20                  21
  Freq [cm^-1]                1132.9725           1193.7795           1201.6332
  Irrep                           A                   A                   A
  Reduced mass [u]              2.2655              2.7197              1.5583
  Force const [mDyne/A]         1.7134              2.2836              1.3257

  Vibration                       22                  23                  24
  Freq [cm^-1]                1243.4186           1348.6241           1410.3330
  Irrep                           A                   A                   A
  Reduced mass [u]              1.9062              1.5400              1.3098
  Force const [mDyne/A]         1.7364              1.6503              1.5349

  Vibration                       25                  26                  27
  Freq [cm^-1]                1436.6113           1450.3749           1509.5342
  Irrep                           A                   A                   A
  Reduced mass [u]              1.2370              1.0525              1.2536
  Force const [mDyne/A]         1.5042              1.3045              1.6831

  Vibration                       28                  29                  30
  Freq [cm^-1]                1540.3698           1567.5244           1582.6712
  Irrep                           A                   A                   A
  Reduced mass [u]              1.3375              1.2909              1.4819
  Force const [mDyne/A]         1.8698              1.8689              2.1869

  Vibration                       31                  32                  33
  Freq [cm^-1]                1635.8413           1641.0376           1644.4157
  Irrep                           A                   A                   A
  Reduced mass [u]              1.0663              1.0817              1.0419
  Force const [mDyne/A]         1.6812              1.7163              1.6599

  Vibration                       34                  35                  36
  Freq [cm^-1]                1653.8497           1670.8430           3171.3743
  Irrep                           A                   A                   A
  Reduced mass [u]              1.0877              1.0951              1.0724
  Force const [mDyne/A]         1.7530              1.8013              6.3549

  Vibration                       37                  38                  39
  Freq [cm^-1]                3178.3630           3189.9635           3199.9168
  Irrep                           A                   A                   A
  Reduced mass [u]              1.0689              1.0612              1.0392
  Force const [mDyne/A]         6.3621              6.3623              6.2696

  Vibration                       40                  41                  42
  Freq [cm^-1]                3211.3729           3233.5628           3261.3975
  Irrep                           A                   A                   A
  Reduced mass [u]              1.0981              1.0960              1.1029
  Force const [mDyne/A]         6.6721              6.7518              6.9121

  Vibration                       43                  44                  45
  Freq [cm^-1]                3264.6734           3274.2161           4104.9468
  Irrep                           A                   A                   A
  Reduced mass [u]              1.1026              1.0975              1.0668
  Force const [mDyne/A]         6.9237              6.9320             10.5908

  ==> Thermochemistry Components <==

  Entropy, S
    Electronic S            0.000 [cal/(mol K)]        0.000 [J/(mol K)]       0.00000000 [mEh/K] (multiplicity = 1)
    Translational S        38.823 [cal/(mol K)]      162.437 [J/(mol K)]       0.06186912 [mEh/K] (mol. weight = 74.0732 [u], P = 101325.00 [Pa])
    Rotational S           25.941 [cal/(mol K)]      108.538 [J/(mol K)]       0.04133980 [mEh/K] (symmetry no. = 1)
    Vibrational S          13.690 [cal/(mol K)]       57.281 [J/(mol K)]       0.02181702 [mEh/K]
  Total S                  78.455 [cal/(mol K)]      328.256 [J/(mol K)]       0.12502595 [mEh/K]
  Correction S              0.000 [cal/(mol K)]        0.000 [J/(mol K)]       0.00000000 [mEh/K]

  Constant volume heat capacity, Cv
    Electronic Cv           0.000 [cal/(mol K)]        0.000 [J/(mol K)]       0.00000000 [mEh/K]
    Translational Cv        2.981 [cal/(mol K)]       12.472 [J/(mol K)]       0.00475022 [mEh/K]
    Rotational Cv           2.981 [cal/(mol K)]       12.472 [J/(mol K)]       0.00475022 [mEh/K]
    Vibrational Cv         15.772 [cal/(mol K)]       65.992 [J/(mol K)]       0.02513502 [mEh/K]
  Total Cv                 21.734 [cal/(mol K)]       90.935 [J/(mol K)]       0.03463547 [mEh/K]
  Correction Cv             0.000 [cal/(mol K)]        0.000 [J/(mol K)]       0.00000000 [mEh/K]

  Constant pressure heat capacity, Cp
    Electronic Cp           0.000 [cal/(mol K)]        0.000 [J/(mol K)]       0.00000000 [mEh/K]
    Translational Cp        4.968 [cal/(mol K)]       20.786 [J/(mol K)]       0.00791704 [mEh/K]
    Rotational Cp           2.981 [cal/(mol K)]       12.472 [J/(mol K)]       0.00475022 [mEh/K]
    Vibrational Cp         15.772 [cal/(mol K)]       65.992 [J/(mol K)]       0.02513502 [mEh/K]
  Total Cp                 23.721 [cal/(mol K)]       99.250 [J/(mol K)]       0.03780228 [mEh/K]
  Correction Cp             0.000 [cal/(mol K)]        0.000 [J/(mol K)]       0.00000000 [mEh/K]

  ==> Thermochemistry Energy Analysis <==

  Raw electronic energy, E0
  Total E0, Electronic energy at well bottom at 0 [K]                 -232.14496829 [Eh]

  Zero-point energy, ZPE_vib = Sum_i nu_i / 2
    Electronic ZPE          0.000 [kcal/mol]        0.000 [kJ/mol]       0.00000000 [Eh]
    Translational ZPE       0.000 [kcal/mol]        0.000 [kJ/mol]       0.00000000 [Eh]
    Rotational ZPE          0.000 [kcal/mol]        0.000 [kJ/mol]       0.00000000 [Eh]
    Vibrational ZPE        92.399 [kcal/mol]      386.597 [kJ/mol]       0.14724716 [Eh]       32317.011 [cm^-1]
  Correction ZPE           92.399 [kcal/mol]      386.597 [kJ/mol]       0.14724716 [Eh]       32317.011 [cm^-1]
  Total ZPE, Electronic energy at 0 [K]                               -231.99772113 [Eh]

  Thermal Energy, E (includes ZPE)
    Electronic E            0.000 [kcal/mol]        0.000 [kJ/mol]       0.00000000 [Eh]
    Translational E         0.889 [kcal/mol]        3.718 [kJ/mol]       0.00141628 [Eh]
    Rotational E            0.889 [kcal/mol]        3.718 [kJ/mol]       0.00141628 [Eh]
    Vibrational E          94.721 [kcal/mol]      396.312 [kJ/mol]       0.15094735 [Eh]
  Correction E             96.498 [kcal/mol]      403.749 [kJ/mol]       0.15377991 [Eh]
  Total E, Electronic energy at  298.15 [K]                           -231.99118838 [Eh]

  Enthalpy, H_trans = E_trans + k_B * T
    Electronic H            0.000 [kcal/mol]        0.000 [kJ/mol]       0.00000000 [Eh]
    Translational H         1.481 [kcal/mol]        6.197 [kJ/mol]       0.00236046 [Eh]
    Rotational H            0.889 [kcal/mol]        3.718 [kJ/mol]       0.00141628 [Eh]
    Vibrational H          94.721 [kcal/mol]      396.312 [kJ/mol]       0.15094735 [Eh]
  Correction H             97.091 [kcal/mol]      406.228 [kJ/mol]       0.15472409 [Eh]
  Total H, Enthalpy at  298.15 [K]                                    -231.99024420 [Eh]

  Gibbs free energy, G = H - T * S
    Electronic G            0.000 [kcal/mol]        0.000 [kJ/mol]       0.00000000 [Eh]
    Translational G       -10.094 [kcal/mol]      -42.233 [kJ/mol]      -0.01608581 [Eh]
    Rotational G           -6.846 [kcal/mol]      -28.642 [kJ/mol]      -0.01090918 [Eh]
    Vibrational G          90.639 [kcal/mol]      379.234 [kJ/mol]       0.14444260 [Eh]
  Correction G             73.699 [kcal/mol]      308.359 [kJ/mol]       0.11744761 [Eh]
  Total G, Free enthalpy at  298.15 [K]                               -232.02752068 [Eh]

*** Psi4 exiting successfully. Buy a developer a beer!
