                               Psi4 1.2.1 release

  ==> Input File <==

--------------------------------------------------------------------------
memory 100 Gb

molecule conf_03 {
0 1
  C    -1.103426334780    -0.616840226742     0.598721917086
  H    -0.789220099410    -1.655216941243     0.683175492438
  H    -1.857023172790    -0.588477595108    -0.185734274002
  C    -1.732990735624    -0.172121353565     1.918364201957
  H    -2.089488708919     0.851928635962     1.856085212357
  H    -1.014214692511    -0.222267842446     2.731072125714
  H    -2.576964984056    -0.801476446115     2.182885351612
  C     0.720224271344    -0.189598707880    -1.117850413839
  H    -0.017355460102    -0.146492515449    -1.918148485694
  H     1.059171122593    -1.221946655185    -1.042141848205
  O     1.799279716653     0.665908510747    -1.393616844024
  H     2.207603725745     0.410835911913    -2.208556657027
  C     0.090756150539     0.247922348668     0.192839203863
  H    -0.215406494675     1.286068077887     0.096331312905
  H     0.853551139348     0.218174841994     0.966179213513
}
set globals {
  reference rhf
  basis 6-31G(d)
}
frequency('scf', dertype=1)

--------------------------------------------------------------------------

    Molecular point group: c1
  Charge       = 0
  Multiplicity = 1
  Basis Set: 6-31G(D)
    Blend: 6-31G(D)
  Basis Set: (6-31G(D) AUX)
    Blend: CC-PVDZ-JKFIT
  @DF-RHF Final Energy:  -232.14500016608883
    Total Energy =                       -232.1450001660888347
    Molecular point group: c1
  Basis Set: 6-31G(D)
    Blend: 6-31G(D)
  Basis Set: (6-31G(D) AUX)
    Blend: CC-PVDZ-JKFIT
  Basis Set: 6-31G(D)
    Blend: 6-31G(D)
  Basis Set: (6-31G(D) AUX)
    Blend: CC-PVDZ-JKFIT
  @DF-RHF Final Energy:  -232.14499935447333
    Total Energy =                       -232.1449993544733275
  Basis Set: 6-31G(D)
    Blend: 6-31G(D)
  Basis Set: (6-31G(D) AUX)
    Blend: CC-PVDZ-JKFIT
  Basis Set: 6-31G(D)
    Blend: 6-31G(D)
  @DF-RHF Final Energy:  -232.14499935350136
    Total Energy =                       -232.1449993535013618
  @DF-RHF Final Energy:  -232.14499923731961
    Total Energy =                       -232.1449992373196096
  @DF-RHF Final Energy:  -232.14499922773444
    Total Energy =                       -232.1449992277344450
  @DF-RHF Final Energy:  -232.14499930354992
    Total Energy =                       -232.1449993035499233
  @DF-RHF Final Energy:  -232.14499929114055
    Total Energy =                       -232.1449992911405502
  @DF-RHF Final Energy:  -232.14499909199185
    Total Energy =                       -232.1449990919918491
  @DF-RHF Final Energy:  -232.14499908734467
    Total Energy =                       -232.1449990873446723
  @DF-RHF Final Energy:  -232.14499610922124
    Total Energy =                       -232.1449961092212675
  @DF-RHF Final Energy:  -232.14499607494588
    Total Energy =                       -232.1449960749458796
  @DF-RHF Final Energy:  -232.14499934208641
    Total Energy =                       -232.1449993420864075
  @DF-RHF Final Energy:  -232.14499933476571
    Total Energy =                       -232.1449993347657141
  @DF-RHF Final Energy:  -232.14499767735111
    Total Energy =                       -232.1449976773511139
  @DF-RHF Final Energy:  -232.14499767293057
    Total Energy =                       -232.1449976729305718
  @DF-RHF Final Energy:  -232.14499951867305
    Total Energy =                       -232.1449995186730462
  @DF-RHF Final Energy:  -232.14499951415991
    Total Energy =                       -232.1449995141599061
  @DF-RHF Final Energy:  -232.14499752452110
    Total Energy =                       -232.1449975245211022
  @DF-RHF Final Energy:  -232.14499751304601
    Total Energy =                       -232.1449975130460075
  @DF-RHF Final Energy:  -232.14499908577352
    Total Energy =                       -232.1449990857735202
  @DF-RHF Final Energy:  -232.14499954683015
    Total Energy =                       -232.1449995468301495
  @DF-RHF Final Energy:  -232.14499950675116
    Total Energy =                       -232.1449995067511622
  @DF-RHF Final Energy:  -232.14499952153352
    Total Energy =                       -232.1449995215335207
  @DF-RHF Final Energy:  -232.14499925021403
    Total Energy =                       -232.1449992502140276
  @DF-RHF Final Energy:  -232.14499927369417
    Total Energy =                       -232.1449992736941681
  @DF-RHF Final Energy:  -232.14499867841326
    Total Energy =                       -232.1449986784132875
  @DF-RHF Final Energy:  -232.14499869968120
    Total Energy =                       -232.1449986996811958
  @DF-RHF Final Energy:  -232.14499481177688
    Total Energy =                       -232.1449948117768827
  @DF-RHF Final Energy:  -232.14499482103281
    Total Energy =                       -232.1449948210328103
  @DF-RHF Final Energy:  -232.14499932952083
    Total Energy =                       -232.1449993295208287
  @DF-RHF Final Energy:  -232.14499930094135
    Total Energy =                       -232.1449993009413788
  @DF-RHF Final Energy:  -232.14499839948058
    Total Energy =                       -232.1449983994805848
  @DF-RHF Final Energy:  -232.14499838112141
    Total Energy =                       -232.1449983811214111
  @DF-RHF Final Energy:  -232.14499597333662
    Total Energy =                       -232.1449959733366200
  @DF-RHF Final Energy:  -232.14499595141291
    Total Energy =                       -232.1449959514129091
  @DF-RHF Final Energy:  -232.14499678959351
    Total Energy =                       -232.1449967895935060
  @DF-RHF Final Energy:  -232.14499677817201
    Total Energy =                       -232.1449967781720147
  @DF-RHF Final Energy:  -232.14499662627838
    Total Energy =                       -232.1449966262783846
  Basis Set: (6-31G(D) AUX)
    Blend: CC-PVDZ-JKFIT
  Basis Set: 6-31G(D)
    Blend: 6-31G(D)
  Basis Set: (6-31G(D) AUX)
    Blend: CC-PVDZ-JKFIT
  @DF-RHF Final Energy:  -232.14499662401138
    Total Energy =                       -232.1449966240114122
  Basis Set: 6-31G(D)
    Blend: 6-31G(D)
  Basis Set: (6-31G(D) AUX)
    Blend: CC-PVDZ-JKFIT
    Molecular point group: c1
  Charge       = 0
  Multiplicity = 1
  Basis Set: 6-31G(D)
    Blend: 6-31G(D)
  Basis Set: (6-31G(D) AUX)
    Blend: CC-PVDZ-JKFIT

    Orbital Energies [Eh]
    ---------------------

    Doubly Occupied:

       1A    -20.552165     2A    -11.267444     3A    -11.218594
       4A    -11.211092     5A    -11.209823     6A     -1.359019
       7A     -1.070309     8A     -0.974660     9A     -0.855443
      10A     -0.795993    11A     -0.691771    12A     -0.660085
      13A     -0.603317    14A     -0.592438    15A     -0.560661
      16A     -0.522205    17A     -0.510286    18A     -0.474670
      19A     -0.470170    20A     -0.461455    21A     -0.434466

  @DF-RHF Final Energy:  -232.14500016611478

   => Energetics <=

    Nuclear Repulsion Energy =            185.7617201284406860
    One-Electron Energy =                -682.8213072295538950
    Two-Electron Energy =                 264.9145869349983968
    Total Energy =                       -232.1450001661148121

  Dipole Moment: [D]
     X:    -0.5016      Y:    -1.2944      Z:    -0.9726     Total:     1.6950

    Molecular point group: c1

    Geometry (in Angstrom), charge = 0, multiplicity = 1:

       Center              X                  Y                   Z               Mass
    ------------   -----------------  -----------------  -----------------  -----------------
         C           -1.103426334780    -0.616840226742     0.598721917086    12.000000000000
         H           -0.789220099410    -1.655216941243     0.683175492438     1.007825032070
         H           -1.857023172790    -0.588477595108    -0.185734274002     1.007825032070
         C           -1.732990735624    -0.172121353565     1.918364201957    12.000000000000
         H           -2.089488708919     0.851928635962     1.856085212357     1.007825032070
         H           -1.014214692511    -0.222267842446     2.731072125714     1.007825032070
         H           -2.576964984056    -0.801476446115     2.182885351612     1.007825032070
         C            0.720224271344    -0.189598707880    -1.117850413839    12.000000000000
         H           -0.017355460102    -0.146492515449    -1.918148485694     1.007825032070
         H            1.059171122593    -1.221946655185    -1.042141848205     1.007825032070
         O            1.799279716653     0.665908510747    -1.393616844024    15.994914619560
         H            2.207603725745     0.410835911913    -2.208556657027     1.007825032070
         C            0.090756150539     0.247922348668     0.192839203863    12.000000000000
         H           -0.215406494675     1.286068077887     0.096331312905     1.007825032070
         H            0.853551139348     0.218174841994     0.966179213513     1.007825032070

  Basis Set: 6-31G(D)
    Blend: 6-31G(D)
  Basis Set: (6-31G(D) AUX)
    Blend: CC-PVDZ-JKFIT

  -Total Gradient:
     Atom            X                  Y                   Z
    ------   -----------------  -----------------  -----------------
       1        0.000000286806     0.000003471937     0.000003853318
       2        0.000000254488    -0.000000396526     0.000000489626
       3       -0.000000524870     0.000000399447    -0.000000166932
       4        0.000003140749    -0.000000999626    -0.000005040491
       5        0.000000089835     0.000000170696    -0.000000363728
       6        0.000000370263    -0.000000089084    -0.000000143096
       7        0.000001122621    -0.000000025411    -0.000001392406
       8        0.000010503188     0.000013489211     0.000003666508
       9       -0.000004601157    -0.000002865774     0.000000805594
      10       -0.000003789476    -0.000003689087     0.000001465449
      11       -0.000005307668    -0.000006596952    -0.000001583132
      12        0.000004261997     0.000003833553    -0.000000535154
      13       -0.000007715455    -0.000007552844     0.000000246967
      14        0.000000339079     0.000001034264    -0.000001143477
      15        0.000001569596    -0.000000183808    -0.000000159041

  Vibration                       7                   8                   9
  Freq [cm^-1]                 116.7530            127.9506            201.0267
  Irrep                           A                   A                   A
  Reduced mass [u]              1.8452              2.5094              3.0534
  Force const [mDyne/A]         0.0148              0.0242              0.0727

  Vibration                       10                  11                  12
  Freq [cm^-1]                 265.3634            304.4408            421.3262
  Irrep                           A                   A                   A
  Reduced mass [u]              1.1239              1.0861              3.2391
  Force const [mDyne/A]         0.0466              0.0593              0.3388

  Vibration                       13                  14                  15
  Freq [cm^-1]                 472.1502            797.9898            880.1080
  Irrep                           A                   A                   A
  Reduced mass [u]              3.5560              1.0722              1.1343
  Force const [mDyne/A]         0.4671              0.4023              0.5177

  Vibration                       16                  17                  18
  Freq [cm^-1]                 975.0716           1036.4421           1072.4133
  Irrep                           A                   A                   A
  Reduced mass [u]              1.8509              1.1381              3.1310
  Force const [mDyne/A]         1.0368              0.7203              2.1216

  Vibration                       19                  20                  21
  Freq [cm^-1]                1133.2207           1187.5531           1212.5194
  Irrep                           A                   A                   A
  Reduced mass [u]              2.1956              3.3736              1.9036
  Force const [mDyne/A]         1.6612              2.8032              1.6490

  Vibration                       22                  23                  24
  Freq [cm^-1]                1304.9073           1356.6774           1370.3337
  Irrep                           A                   A                   A
  Reduced mass [u]              1.6447              1.3115              1.2949
  Force const [mDyne/A]         1.6501              1.4222              1.4326

  Vibration                       25                  26                  27
  Freq [cm^-1]                1442.9061           1444.1208           1447.4940
  Irrep                           A                   A                   A
  Reduced mass [u]              1.1301              1.3500              1.0694
  Force const [mDyne/A]         1.3863              1.6588              1.3201

  Vibration                       28                  29                  30
  Freq [cm^-1]                1539.0459           1567.4999           1616.9922
  Irrep                           A                   A                   A
  Reduced mass [u]              1.4502              1.3057              1.4659
  Force const [mDyne/A]         2.0239              1.8902              2.2582

  Vibration                       31                  32                  33
  Freq [cm^-1]                1636.9689           1644.1707           1644.3012
  Irrep                           A                   A                   A
  Reduced mass [u]              1.0632              1.0988              1.0418
  Force const [mDyne/A]         1.6786              1.7500              1.6596

  Vibration                       34                  35                  36
  Freq [cm^-1]                1656.0901           1683.5465           3167.4444
  Irrep                           A                   A                   A
  Reduced mass [u]              1.1005              1.0931              1.0561
  Force const [mDyne/A]         1.7783              1.8254              6.2426

  Vibration                       37                  38                  39
  Freq [cm^-1]                3187.5004           3191.6601           3199.2007
  Irrep                           A                   A                   A
  Reduced mass [u]              1.0590              1.1078              1.0396
  Force const [mDyne/A]         6.3392              6.6490              6.2689

  Vibration                       40                  41                  42
  Freq [cm^-1]                3208.8615           3209.5565           3249.0963
  Irrep                           A                   A                   A
  Reduced mass [u]              1.1038              1.0590              1.1063
  Force const [mDyne/A]         6.6963              6.4274              6.8810

  Vibration                       43                  44                  45
  Freq [cm^-1]                3263.3586           3264.8730           4115.2319
  Irrep                           A                   A                   A
  Reduced mass [u]              1.1026              1.1043              1.0669
  Force const [mDyne/A]         6.9186              6.9356             10.6458

  ==> Thermochemistry Components <==

  Entropy, S
    Electronic S            0.000 [cal/(mol K)]        0.000 [J/(mol K)]       0.00000000 [mEh/K] (multiplicity = 1)
    Translational S        38.823 [cal/(mol K)]      162.437 [J/(mol K)]       0.06186912 [mEh/K] (mol. weight = 74.0732 [u], P = 101325.00 [Pa])
    Rotational S           25.917 [cal/(mol K)]      108.436 [J/(mol K)]       0.04130094 [mEh/K] (symmetry no. = 1)
    Vibrational S          13.813 [cal/(mol K)]       57.792 [J/(mol K)]       0.02201164 [mEh/K]
  Total S                  78.553 [cal/(mol K)]      328.665 [J/(mol K)]       0.12518171 [mEh/K]
  Correction S              0.000 [cal/(mol K)]        0.000 [J/(mol K)]       0.00000000 [mEh/K]

  Constant volume heat capacity, Cv
    Electronic Cv           0.000 [cal/(mol K)]        0.000 [J/(mol K)]       0.00000000 [mEh/K]
    Translational Cv        2.981 [cal/(mol K)]       12.472 [J/(mol K)]       0.00475022 [mEh/K]
    Rotational Cv           2.981 [cal/(mol K)]       12.472 [J/(mol K)]       0.00475022 [mEh/K]
    Vibrational Cv         15.780 [cal/(mol K)]       66.022 [J/(mol K)]       0.02514635 [mEh/K]
  Total Cv                 21.741 [cal/(mol K)]       90.965 [J/(mol K)]       0.03464680 [mEh/K]
  Correction Cv             0.000 [cal/(mol K)]        0.000 [J/(mol K)]       0.00000000 [mEh/K]

  Constant pressure heat capacity, Cp
    Electronic Cp           0.000 [cal/(mol K)]        0.000 [J/(mol K)]       0.00000000 [mEh/K]
    Translational Cp        4.968 [cal/(mol K)]       20.786 [J/(mol K)]       0.00791704 [mEh/K]
    Rotational Cp           2.981 [cal/(mol K)]       12.472 [J/(mol K)]       0.00475022 [mEh/K]
    Vibrational Cp         15.780 [cal/(mol K)]       66.022 [J/(mol K)]       0.02514635 [mEh/K]
  Total Cp                 23.728 [cal/(mol K)]       99.280 [J/(mol K)]       0.03781361 [mEh/K]
  Correction Cp             0.000 [cal/(mol K)]        0.000 [J/(mol K)]       0.00000000 [mEh/K]

  ==> Thermochemistry Energy Analysis <==

  Raw electronic energy, E0
  Total E0, Electronic energy at well bottom at 0 [K]                 -232.14500017 [Eh]

  Zero-point energy, ZPE_vib = Sum_i nu_i / 2
    Electronic ZPE          0.000 [kcal/mol]        0.000 [kJ/mol]       0.00000000 [Eh]
    Translational ZPE       0.000 [kcal/mol]        0.000 [kJ/mol]       0.00000000 [Eh]
    Rotational ZPE          0.000 [kcal/mol]        0.000 [kJ/mol]       0.00000000 [Eh]
    Vibrational ZPE        92.373 [kcal/mol]      386.490 [kJ/mol]       0.14720643 [Eh]       32308.073 [cm^-1]
  Correction ZPE           92.373 [kcal/mol]      386.490 [kJ/mol]       0.14720643 [Eh]       32308.073 [cm^-1]
  Total ZPE, Electronic energy at 0 [K]                               -231.99779374 [Eh]

  Thermal Energy, E (includes ZPE)
    Electronic E            0.000 [kcal/mol]        0.000 [kJ/mol]       0.00000000 [Eh]
    Translational E         0.889 [kcal/mol]        3.718 [kJ/mol]       0.00141628 [Eh]
    Rotational E            0.889 [kcal/mol]        3.718 [kJ/mol]       0.00141628 [Eh]
    Vibrational E          94.710 [kcal/mol]      396.265 [kJ/mol]       0.15092933 [Eh]
  Correction E             96.487 [kcal/mol]      403.702 [kJ/mol]       0.15376188 [Eh]
  Total E, Electronic energy at  298.15 [K]                           -231.99123828 [Eh]

  Enthalpy, H_trans = E_trans + k_B * T
    Electronic H            0.000 [kcal/mol]        0.000 [kJ/mol]       0.00000000 [Eh]
    Translational H         1.481 [kcal/mol]        6.197 [kJ/mol]       0.00236046 [Eh]
    Rotational H            0.889 [kcal/mol]        3.718 [kJ/mol]       0.00141628 [Eh]
    Vibrational H          94.710 [kcal/mol]      396.265 [kJ/mol]       0.15092933 [Eh]
  Correction H             97.080 [kcal/mol]      406.181 [kJ/mol]       0.15470607 [Eh]
  Total H, Enthalpy at  298.15 [K]                                    -231.99029410 [Eh]

  Gibbs free energy, G = H - T * S
    Electronic G            0.000 [kcal/mol]        0.000 [kJ/mol]       0.00000000 [Eh]
    Translational G       -10.094 [kcal/mol]      -42.233 [kJ/mol]      -0.01608581 [Eh]
    Rotational G           -6.838 [kcal/mol]      -28.612 [kJ/mol]      -0.01089760 [Eh]
    Vibrational G          90.591 [kcal/mol]      379.034 [kJ/mol]       0.14436655 [Eh]
  Correction G             73.659 [kcal/mol]      308.189 [kJ/mol]       0.11738314 [Eh]
  Total G, Free enthalpy at  298.15 [K]                               -232.02761702 [Eh]

*** Psi4 exiting successfully. Buy a developer a beer!
