                               Psi4 1.2.1 release

  ==> Input File <==

--------------------------------------------------------------------------
memory 100 Gb

molecule conf_02 {
0 1
  C    -2.465404178400    -0.627029309400     0.396409749600
  H    -2.151490057000    -1.666300306800     0.469504405300
  H    -3.205005816300    -0.587207008900    -0.400411051500
  C    -3.117132354800    -0.202405728900     1.711853112800
  H    -3.473255431200     0.822263972400     1.659140369600
  H    -2.412697699500    -0.265046169300     2.536381543400
  H    -3.965035725400    -0.836000447700     1.952181158000
  C    -0.613431182700    -0.179158338700    -1.292303086100
  H    -1.328226395400    -0.115059101400    -2.103175044000
  H    -0.286278613500    -1.216504225300    -1.232501403300
  O     0.454524492900     0.655221743700    -1.657590278800
  H     1.143303329200     0.584311214100    -1.011434045200
  C    -1.266234611400     0.243814688700     0.017977714200
  H    -1.570796154800     1.283380457400    -0.069353099400
  H    -0.523839602000     0.203718560100     0.815319955500
}
set globals {
  reference rhf
  g_convergence gau_tight
  basis 6-31G(d)
}
optimize('scf')

--------------------------------------------------------------------------

    Molecular point group: c1
  Charge       = 0
  Multiplicity = 1
  Basis Set: 6-31G(D)
    Blend: 6-31G(D)
  Basis Set: (6-31G(D) AUX)
    Blend: CC-PVDZ-JKFIT
  @DF-RHF Final Energy:  -232.14496827707896
    Total Energy =                       -232.1449682770789309
    Molecular point group: c1
  Basis Set: 6-31G(D)
    Blend: 6-31G(D)
  Basis Set: (6-31G(D) AUX)
    Blend: CC-PVDZ-JKFIT
  Basis Set: 6-31G(D)
    Blend: 6-31G(D)
  Basis Set: (6-31G(D) AUX)
    Blend: CC-PVDZ-JKFIT
  @DF-RHF Final Energy:  -232.14496828782436
    Total Energy =                       -232.1449682878243834
  Basis Set: 6-31G(D)
    Blend: 6-31G(D)
  Basis Set: (6-31G(D) AUX)
    Blend: CC-PVDZ-JKFIT
  Basis Set: 6-31G(D)
    Blend: 6-31G(D)
  @DF-RHF Final Energy:  -232.14496828912394
    Total Energy =                       -232.1449682891239377
  @DF-RHF Final Energy:  -232.14496828924081
    Total Energy =                       -232.1449682892408077
  @DF-RHF Final Energy:  -232.14496828885419
    Total Energy =                       -232.1449682888542156
  @DF-RHF Final Energy:  -232.14496828826663
    Total Energy =                       -232.1449682882666252
  @DF-RHF Final Energy:  -232.14496828814387
    Total Energy =                       -232.1449682881438434
  @DF-RHF Final Energy:  -232.14496828799273
    Total Energy =                       -232.1449682879926968
  @DF-RHF Final Energy:  -232.14496828871754
    Total Energy =                       -232.1449682887175072
  @DF-RHF Final Energy:  -232.14496828906590
    Total Energy =                       -232.1449682890659005
  @DF-RHF Final Energy:  -232.14496828923848
    Total Energy =                       -232.1449682892384772
  @DF-RHF Final Energy:  -232.14496828900295
    Total Energy =                       -232.1449682890029749
  @DF-RHF Final Energy:  -232.14496828891754
    Total Energy =                       -232.1449682889175392
  @DF-RHF Final Energy:  -232.14496828943066
    Total Energy =                       -232.1449682894306648
  @DF-RHF Final Energy:  -232.14496828910353
    Total Energy =                       -232.1449682891035309
  @DF-RHF Final Energy:  -232.14496828906400
    Total Energy =                       -232.1449682890640247
  @DF-RHF Final Energy:  -232.14496828913121
    Total Energy =                       -232.1449682891312136
  @DF-RHF Final Energy:  -232.14496828913161
    Total Energy =                       -232.1449682891316115
  @DF-RHF Final Energy:  -232.14496828941026
    Total Energy =                       -232.1449682894102580
  @DF-RHF Final Energy:  -232.14496828921551
    Total Energy =                       -232.1449682892155124
  @DF-RHF Final Energy:  -232.14496828927125
    Total Energy =                       -232.1449682892712758
  @DF-RHF Final Energy:  -232.14496828946432
    Total Energy =                       -232.1449682894643161
  Basis Set: (6-31G(D) AUX)
    Blend: CC-PVDZ-JKFIT
  Basis Set: 6-31G(D)
    Blend: 6-31G(D)
  Basis Set: (6-31G(D) AUX)
    Blend: CC-PVDZ-JKFIT
  @DF-RHF Final Energy:  -232.14496828903364
    Total Energy =                       -232.1449682890336703
  Basis Set: 6-31G(D)
    Blend: 6-31G(D)
  Basis Set: (6-31G(D) AUX)
    Blend: CC-PVDZ-JKFIT
  Charge       = 0
  Multiplicity = 1
  Basis Set: 6-31G(D)
    Blend: 6-31G(D)
  Basis Set: (6-31G(D) AUX)
    Blend: CC-PVDZ-JKFIT

    Orbital Energies [Eh]
    ---------------------

    Doubly Occupied:

       1A    -20.552585     2A    -11.267266     3A    -11.222533
       4A    -11.217183     5A    -11.213463     6A     -1.359543
       7A     -1.073530     8A     -0.975589     9A     -0.863175
      10A     -0.804201    11A     -0.693052    12A     -0.641314
      13A     -0.611799    14A     -0.599361    15A     -0.552943
      16A     -0.541628    17A     -0.515235    18A     -0.481720
      19A     -0.477498    20A     -0.465764    21A     -0.426519

  @DF-RHF Final Energy:  -232.14496828919641

   => Energetics <=

    Nuclear Repulsion Energy =            185.5563797709993423
    One-Electron Energy =                -682.2908995314750200
    Two-Electron Energy =                 264.5895514712792647
    Total Energy =                       -232.1449682891964130

  Dipole Moment: [D]
     X:    -0.1659      Y:    -0.9980      Z:     1.5564     Total:     1.8563

    Molecular point group: c1
  Basis Set: 6-31G(D)
    Blend: 6-31G(D)
  Basis Set: (6-31G(D) AUX)
    Blend: CC-PVDZ-JKFIT

  -Total Gradient:
     Atom            X                  Y                   Z
    ------   -----------------  -----------------  -----------------
       1       -0.000000380760     0.000000360723    -0.000000422672
       2       -0.000000094597     0.000000073426     0.000000112864
       3        0.000000053533     0.000000023540    -0.000000093660
       4        0.000000124012    -0.000000084839     0.000000116803
       5       -0.000000201942    -0.000000063119    -0.000000087043
       6        0.000000040092     0.000000186646    -0.000000066746
       7        0.000000134433    -0.000000104909     0.000000071930
       8       -0.000000178095    -0.000000274214     0.000000037930
       9       -0.000000017090    -0.000000047353     0.000000017898
      10        0.000000007444     0.000000104143     0.000000059312
      11        0.000000103548     0.000000209101    -0.000000019190
      12       -0.000000000768     0.000000017011    -0.000000063873
      13        0.000000274823    -0.000000204319     0.000000212068
      14       -0.000000043015    -0.000000165868     0.000000179074
      15        0.000000178380    -0.000000029970    -0.000000054690

  **** Optimization is complete! (in 24 steps) ****
    Final optimized geometry and variables:
    Molecular point group: c1

    Geometry (in Angstrom), charge = 0, multiplicity = 1:

    C           -1.112812516963    -0.620226798266     0.583651597878
    H           -0.798887225492    -1.659476809617     0.656810237316
    H           -1.852416375753    -0.580385096333    -0.213149306258
    C           -1.764553667056    -0.195585985165     1.899078211381
    H           -2.120744173907     0.829047519097     1.846307240009
    H           -1.060111402845    -0.258171311576     2.723592018685
    H           -2.612408780580    -0.829232686866     2.139410222568
    C            0.739061429462    -0.172379503346    -1.105013468363
    H            0.024253680881    -0.108235324034    -1.915847716530
    H            1.066205625558    -1.209694595461    -1.045180310239
    O            1.807095088879     0.662006749014    -1.470395543799
    H            2.496067096484     0.590941766335    -0.824475920427
    C            0.086342198013     0.250634892610     0.205265053676
    H           -0.218244234791     1.290172387335     0.117915032456
    H            0.828741979466     0.210476174540     1.002574547624

*** Psi4 exiting successfully. Buy a developer a beer!
