                               Psi4 1.2.1 release

  ==> Input File <==

--------------------------------------------------------------------------
memory 100 Gb

molecule conf_04 {
0 1
  C    -2.441271851400    -0.630393004300     0.418962525800
  H    -2.094817161800    -1.656687803700     0.524478472200
  H    -3.146682556900    -0.635422508600    -0.407427234900
  C    -3.179853499400    -0.209186360800     1.691661269400
  H    -3.523821908000     0.818964707200     1.620495447000
  H    -2.551654388600    -0.286702145200     2.573359224000
  H    -4.049400511600    -0.837439001100     1.857881405300
  C    -0.102291660300     0.235331524400     1.017682434800
  H     0.235509257700    -0.791516256000     1.154803751600
  H    -0.407774629600     0.611991639200     1.991013303500
  O     0.930011223400     1.028990019000     0.489959120100
  H     1.659876118600     1.043135638000     1.092472933900
  C    -1.262476453600     0.270538007400     0.036275967200
  H    -0.878646288100    -0.029238569600    -0.934364435100
  H    -1.596705690400     1.299634114100    -0.066254184600
}
set globals {
  reference rhf
  g_convergence gau_tight
  basis 6-31G(d)
}
optimize('scf')

--------------------------------------------------------------------------

    Molecular point group: c1
  Charge       = 0
  Multiplicity = 1
  Basis Set: 6-31G(D)
    Blend: 6-31G(D)
  Basis Set: (6-31G(D) AUX)
    Blend: CC-PVDZ-JKFIT
  @DF-RHF Final Energy:  -232.14333670060873
    Total Energy =                       -232.1433367006086996
    Molecular point group: c1
  Basis Set: 6-31G(D)
    Blend: 6-31G(D)
  Basis Set: (6-31G(D) AUX)
    Blend: CC-PVDZ-JKFIT
  Basis Set: 6-31G(D)
    Blend: 6-31G(D)
  Basis Set: (6-31G(D) AUX)
    Blend: CC-PVDZ-JKFIT
  @DF-RHF Final Energy:  -232.14333669999709
    Total Energy =                       -232.1433366999971213
  Basis Set: 6-31G(D)
    Blend: 6-31G(D)
  Basis Set: (6-31G(D) AUX)
    Blend: CC-PVDZ-JKFIT
  Basis Set: 6-31G(D)
    Blend: 6-31G(D)
  @DF-RHF Final Energy:  -232.14333670277031
    Total Energy =                       -232.1433367027702843
  @DF-RHF Final Energy:  -232.14333671068357
    Total Energy =                       -232.1433367106835703
  @DF-RHF Final Energy:  -232.14333671327552
    Total Energy =                       -232.1433367132755166
  @DF-RHF Final Energy:  -232.14333671386453
    Total Energy =                       -232.1433367138645281
  @DF-RHF Final Energy:  -232.14333671405825
    Total Energy =                       -232.1433367140582504
  @DF-RHF Final Energy:  -232.14333671429515
    Total Energy =                       -232.1433367142951738
  Basis Set: (6-31G(D) AUX)
    Blend: CC-PVDZ-JKFIT
  Basis Set: 6-31G(D)
    Blend: 6-31G(D)
  Basis Set: (6-31G(D) AUX)
    Blend: CC-PVDZ-JKFIT
  @DF-RHF Final Energy:  -232.14333671432004
    Total Energy =                       -232.1433367143200712
  Basis Set: 6-31G(D)
    Blend: 6-31G(D)
  Basis Set: (6-31G(D) AUX)
    Blend: CC-PVDZ-JKFIT
  Charge       = 0
  Multiplicity = 1
  Basis Set: 6-31G(D)
    Blend: 6-31G(D)
  Basis Set: (6-31G(D) AUX)
    Blend: CC-PVDZ-JKFIT

    Orbital Energies [Eh]
    ---------------------

    Doubly Occupied:

       1A    -20.551921     2A    -11.266943     3A    -11.218752
       4A    -11.211279     5A    -11.211203     6A     -1.358655
       7A     -1.069672     8A     -0.970966     9A     -0.869397
      10A     -0.784693    11A     -0.694740    12A     -0.651450
      13A     -0.617309    14A     -0.583617    15A     -0.556200
      16A     -0.537714    17A     -0.507032    18A     -0.473591
      19A     -0.473380    20A     -0.456352    21A     -0.433247

  @DF-RHF Final Energy:  -232.14333671424239

   => Energetics <=

    Nuclear Repulsion Energy =            188.0836420757111398
    One-Electron Energy =                -687.4577345009597593
    Two-Electron Energy =                 267.2307557110061680
    Total Energy =                       -232.1433367142424231

  Dipole Moment: [D]
     X:     0.0127      Y:    -0.8212      Z:     1.4325     Total:     1.6512

    Molecular point group: c1
  Basis Set: 6-31G(D)
    Blend: 6-31G(D)
  Basis Set: (6-31G(D) AUX)
    Blend: CC-PVDZ-JKFIT

  -Total Gradient:
     Atom            X                  Y                   Z
    ------   -----------------  -----------------  -----------------
       1       -0.000000080235     0.000000007500     0.000000037179
       2        0.000000091080     0.000000063519     0.000000028865
       3       -0.000000147431    -0.000000046941     0.000000105142
       4        0.000000076771     0.000000020735    -0.000000145985
       5        0.000000136714    -0.000000004778    -0.000000007387
       6        0.000000005793    -0.000000069150    -0.000000010313
       7       -0.000000036151     0.000000017029    -0.000000113814
       8        0.000000138712    -0.000000796359    -0.000000508123
       9       -0.000000225067    -0.000000142903     0.000000198944
      10       -0.000000135879     0.000000018609    -0.000000214147
      11        0.000000396029     0.000000505504     0.000000185010
      12        0.000000135027     0.000000200449    -0.000000100375
      13       -0.000000396361     0.000000235697     0.000000351953
      14        0.000000149318    -0.000000074703     0.000000358556
      15       -0.000000108323     0.000000065791    -0.000000165508

  **** Optimization is complete! (in 10 steps) ****
    Final optimized geometry and variables:
    Molecular point group: c1

    Geometry (in Angstrom), charge = 0, multiplicity = 1:

    C           -1.287894020402    -0.792096892666    -0.327386237953
    H           -0.941465971945    -1.818359836293    -0.221604785451
    H           -1.993217732195    -0.797263904397    -1.153836105084
    C           -2.026627601458    -0.370587486909     0.945115506996
    H           -2.370740379971     0.657477282609     0.873558215854
    H           -1.398482923573    -0.447723624228     1.826874814415
    H           -2.896078705269    -0.998931349934     1.111448868620
    C            1.051256444425     0.073043860026     0.271093262988
    H            1.389085802756    -0.953846015857     0.407575026224
    H            0.745937034541     0.449206816522     1.244634936011
    O            2.083521085818     0.867046050901    -0.256405729372
    H            2.813554177503     0.880860674559     0.345897692146
    C           -0.109065324929     0.108763159338    -0.710107109016
    H            0.274523056596    -0.190847203559    -1.680876722155
    H           -0.443173091610     1.137915820703    -0.812260871363

*** Psi4 exiting successfully. Buy a developer a beer!
