                               Psi4 1.2.1 release

  ==> Input File <==

--------------------------------------------------------------------------
memory 100 Gb

molecule conf_04 {
0 1
  C    -1.287894020402    -0.792096892666    -0.327386237953
  H    -0.941465971945    -1.818359836293    -0.221604785451
  H    -1.993217732195    -0.797263904397    -1.153836105084
  C    -2.026627601458    -0.370587486909     0.945115506996
  H    -2.370740379971     0.657477282609     0.873558215854
  H    -1.398482923573    -0.447723624228     1.826874814415
  H    -2.896078705269    -0.998931349934     1.111448868620
  C     1.051256444425     0.073043860026     0.271093262988
  H     1.389085802756    -0.953846015857     0.407575026224
  H     0.745937034541     0.449206816522     1.244634936011
  O     2.083521085818     0.867046050901    -0.256405729372
  H     2.813554177503     0.880860674559     0.345897692146
  C    -0.109065324929     0.108763159338    -0.710107109016
  H     0.274523056596    -0.190847203559    -1.680876722155
  H    -0.443173091610     1.137915820703    -0.812260871363
}
set globals {
  reference rhf
  basis 6-31G(d)
}
frequency('scf', dertype=1)

--------------------------------------------------------------------------

    Molecular point group: c1
  Charge       = 0
  Multiplicity = 1
  Basis Set: 6-31G(D)
    Blend: 6-31G(D)
  Basis Set: (6-31G(D) AUX)
    Blend: CC-PVDZ-JKFIT
  @DF-RHF Final Energy:  -232.14333671436250
    Total Energy =                       -232.1433367143624764
    Molecular point group: c1
  Basis Set: 6-31G(D)
    Blend: 6-31G(D)
  Basis Set: (6-31G(D) AUX)
    Blend: CC-PVDZ-JKFIT
  Basis Set: 6-31G(D)
    Blend: 6-31G(D)
  Basis Set: (6-31G(D) AUX)
    Blend: CC-PVDZ-JKFIT
  @DF-RHF Final Energy:  -232.14333593162786
    Total Energy =                       -232.1433359316278597
  Basis Set: 6-31G(D)
    Blend: 6-31G(D)
  Basis Set: (6-31G(D) AUX)
    Blend: CC-PVDZ-JKFIT
  Basis Set: 6-31G(D)
    Blend: 6-31G(D)
  @DF-RHF Final Energy:  -232.14333593184534
    Total Energy =                       -232.1433359318453427
  @DF-RHF Final Energy:  -232.14333572112307
    Total Energy =                       -232.1433357211230941
  @DF-RHF Final Energy:  -232.14333572317076
    Total Energy =                       -232.1433357231707646
  @DF-RHF Final Energy:  -232.14333579491017
    Total Energy =                       -232.1433357949101719
  @DF-RHF Final Energy:  -232.14333579484349
    Total Energy =                       -232.1433357948434946
  @DF-RHF Final Energy:  -232.14333559410102
    Total Energy =                       -232.1433355941010177
  @DF-RHF Final Energy:  -232.14333559077659
    Total Energy =                       -232.1433355907765872
  @DF-RHF Final Energy:  -232.14333277485775
    Total Energy =                       -232.1433327748577540
  @DF-RHF Final Energy:  -232.14333273935696
    Total Energy =                       -232.1433327393569925
  @DF-RHF Final Energy:  -232.14333587369742
    Total Energy =                       -232.1433358736974242
  @DF-RHF Final Energy:  -232.14333587185283
    Total Energy =                       -232.1433358718528552
  @DF-RHF Final Energy:  -232.14333434827387
    Total Energy =                       -232.1433343482738678
  @DF-RHF Final Energy:  -232.14333434246038
    Total Energy =                       -232.1433343424603777
  @DF-RHF Final Energy:  -232.14333606307616
    Total Energy =                       -232.1433360630761626
  @DF-RHF Final Energy:  -232.14333606375169
    Total Energy =                       -232.1433360637516898
  @DF-RHF Final Energy:  -232.14333385355397
    Total Energy =                       -232.1433338535539974
  @DF-RHF Final Energy:  -232.14333383759453
    Total Energy =                       -232.1433338375945254
  @DF-RHF Final Energy:  -232.14333587968520
    Total Energy =                       -232.1433358796851962
  @DF-RHF Final Energy:  -232.14333308745060
    Total Energy =                       -232.1433330874506282
  @DF-RHF Final Energy:  -232.14333573772063
    Total Energy =                       -232.1433357377206335
  @DF-RHF Final Energy:  -232.14333573510584
    Total Energy =                       -232.1433357351058362
  @DF-RHF Final Energy:  -232.14333630036379
    Total Energy =                       -232.1433363003637851
  @DF-RHF Final Energy:  -232.14333629630190
    Total Energy =                       -232.1433362963019249
  @DF-RHF Final Energy:  -232.14333508374719
    Total Energy =                       -232.1433350837472176
  @DF-RHF Final Energy:  -232.14333508842344
    Total Energy =                       -232.1433350884234414
  @DF-RHF Final Energy:  -232.14333063502386
    Total Energy =                       -232.1433306350238581
  @DF-RHF Final Energy:  -232.14333069201757
    Total Energy =                       -232.1433306920175710
  @DF-RHF Final Energy:  -232.14333591494588
    Total Energy =                       -232.1433359149458511
  @DF-RHF Final Energy:  -232.14333591609130
    Total Energy =                       -232.1433359160913028
  @DF-RHF Final Energy:  -232.14333556277620
    Total Energy =                       -232.1433355627762012
  @DF-RHF Final Energy:  -232.14333556570662
    Total Energy =                       -232.1433355657065931
  @DF-RHF Final Energy:  -232.14333176019005
    Total Energy =                       -232.1433317601900512
  @DF-RHF Final Energy:  -232.14333175043228
    Total Energy =                       -232.1433317504322531
  @DF-RHF Final Energy:  -232.14333407526743
    Total Energy =                       -232.1433340752674326
  @DF-RHF Final Energy:  -232.14333406875761
    Total Energy =                       -232.1433340687576106
  @DF-RHF Final Energy:  -232.14333316881277
    Total Energy =                       -232.1433331688127737
  Basis Set: (6-31G(D) AUX)
    Blend: CC-PVDZ-JKFIT
  Basis Set: 6-31G(D)
    Blend: 6-31G(D)
  Basis Set: (6-31G(D) AUX)
    Blend: CC-PVDZ-JKFIT
  @DF-RHF Final Energy:  -232.14333318527204
    Total Energy =                       -232.1433331852720130
  Basis Set: 6-31G(D)
    Blend: 6-31G(D)
  Basis Set: (6-31G(D) AUX)
    Blend: CC-PVDZ-JKFIT
    Molecular point group: c1
  Charge       = 0
  Multiplicity = 1
  Basis Set: 6-31G(D)
    Blend: 6-31G(D)
  Basis Set: (6-31G(D) AUX)
    Blend: CC-PVDZ-JKFIT

    Orbital Energies [Eh]
    ---------------------

    Doubly Occupied:

       1A    -20.551921     2A    -11.266943     3A    -11.218752
       4A    -11.211279     5A    -11.211203     6A     -1.358655
       7A     -1.069672     8A     -0.970966     9A     -0.869397
      10A     -0.784693    11A     -0.694740    12A     -0.651450
      13A     -0.617309    14A     -0.583617    15A     -0.556200
      16A     -0.537714    17A     -0.507032    18A     -0.473591
      19A     -0.473380    20A     -0.456352    21A     -0.433247

  @DF-RHF Final Energy:  -232.14333671436253

   => Energetics <=

    Nuclear Repulsion Energy =            188.0836420757295571
    One-Electron Energy =                -687.4577348954722993
    Two-Electron Energy =                 267.2307561053801805
    Total Energy =                       -232.1433367143625333

  Dipole Moment: [D]
     X:     0.0127      Y:    -0.8212      Z:     1.4325     Total:     1.6512

    Molecular point group: c1

    Geometry (in Angstrom), charge = 0, multiplicity = 1:

       Center              X                  Y                   Z               Mass
    ------------   -----------------  -----------------  -----------------  -----------------
         C           -1.287894020402    -0.792096892666    -0.327386237953    12.000000000000
         H           -0.941465971945    -1.818359836293    -0.221604785451     1.007825032070
         H           -1.993217732195    -0.797263904397    -1.153836105084     1.007825032070
         C           -2.026627601458    -0.370587486909     0.945115506996    12.000000000000
         H           -2.370740379971     0.657477282609     0.873558215854     1.007825032070
         H           -1.398482923573    -0.447723624228     1.826874814415     1.007825032070
         H           -2.896078705269    -0.998931349934     1.111448868620     1.007825032070
         C            1.051256444425     0.073043860026     0.271093262988    12.000000000000
         H            1.389085802756    -0.953846015857     0.407575026224     1.007825032070
         H            0.745937034541     0.449206816522     1.244634936011     1.007825032070
         O            2.083521085818     0.867046050901    -0.256405729372    15.994914619560
         H            2.813554177503     0.880860674559     0.345897692146     1.007825032070
         C           -0.109065324929     0.108763159338    -0.710107109016    12.000000000000
         H            0.274523056596    -0.190847203559    -1.680876722155     1.007825032070
         H           -0.443173091610     1.137915820703    -0.812260871363     1.007825032070

  Basis Set: 6-31G(D)
    Blend: 6-31G(D)
  Basis Set: (6-31G(D) AUX)
    Blend: CC-PVDZ-JKFIT

  -Total Gradient:
     Atom            X                  Y                   Z
    ------   -----------------  -----------------  -----------------
       1       -0.000000079953     0.000000017125     0.000000043450
       2        0.000000094866     0.000000058402     0.000000028702
       3       -0.000000150781    -0.000000046387     0.000000100103
       4        0.000000077721     0.000000018998    -0.000000146944
       5        0.000000138594    -0.000000001766    -0.000000007902
       6        0.000000007964    -0.000000071380    -0.000000009931
       7       -0.000000037642     0.000000017463    -0.000000115951
       8        0.000000156090    -0.000000778493    -0.000000512753
       9       -0.000000223007    -0.000000149142     0.000000199269
      10       -0.000000139367     0.000000018894    -0.000000208975
      11        0.000000379055     0.000000512292     0.000000188070
      12        0.000000140061     0.000000185268    -0.000000104370
      13       -0.000000410391     0.000000227477     0.000000361989
      14        0.000000154788    -0.000000078279     0.000000350719
      15       -0.000000107998     0.000000069526    -0.000000165476

  Vibration                       7                   8                   9
  Freq [cm^-1]                 92.0084             133.1342            233.5757
  Irrep                           A                   A                   A
  Reduced mass [u]              2.1972              2.0887              1.4600
  Force const [mDyne/A]         0.0110              0.0218              0.0469

  Vibration                       10                  11                  12
  Freq [cm^-1]                 302.5194            315.1160            370.1275
  Irrep                           A                   A                   A
  Reduced mass [u]              1.1628              1.4781              3.0023
  Force const [mDyne/A]         0.0627              0.0865              0.2423

  Vibration                       13                  14                  15
  Freq [cm^-1]                 522.9302            813.6877            867.3261
  Irrep                           A                   A                   A
  Reduced mass [u]              2.8411              1.1959              1.2525
  Force const [mDyne/A]         0.4577              0.4665              0.5551

  Vibration                       16                  17                  18
  Freq [cm^-1]                 939.9328           1034.2609           1057.8145
  Irrep                           A                   A                   A
  Reduced mass [u]              2.0922              1.7299              1.3032
  Force const [mDyne/A]         1.0891              1.0903              0.8592

  Vibration                       19                  20                  21
  Freq [cm^-1]                1149.5785           1183.2499           1209.6132
  Irrep                           A                   A                   A
  Reduced mass [u]              2.5911              2.2868              1.8823
  Force const [mDyne/A]         2.0175              1.8864              1.6227

  Vibration                       22                  23                  24
  Freq [cm^-1]                1287.8033           1356.7678           1366.2717
  Irrep                           A                   A                   A
  Reduced mass [u]              1.7813              1.2620              1.2982
  Force const [mDyne/A]         1.7405              1.3687              1.4278

  Vibration                       25                  26                  27
  Freq [cm^-1]                1427.3068           1446.6142           1498.3895
  Irrep                           A                   A                   A
  Reduced mass [u]              1.2000              1.0947              1.3276
  Force const [mDyne/A]         1.4404              1.3498              1.7562

  Vibration                       28                  29                  30
  Freq [cm^-1]                1520.0930           1569.2354           1616.1265
  Irrep                           A                   A                   A
  Reduced mass [u]              1.4597              1.2793              1.4077
  Force const [mDyne/A]         1.9872              1.8560              2.1662

  Vibration                       31                  32                  33
  Freq [cm^-1]                1636.2121           1640.9143           1650.5606
  Irrep                           A                   A                   A
  Reduced mass [u]              1.0684              1.1109              1.0590
  Force const [mDyne/A]         1.6852              1.7623              1.6998

  Vibration                       34                  35                  36
  Freq [cm^-1]                1654.7563           1684.3002           3170.2593
  Irrep                           A                   A                   A
  Reduced mass [u]              1.0883              1.0925              1.0632
  Force const [mDyne/A]         1.7558              1.8260              6.2957

  Vibration                       37                  38                  39
  Freq [cm^-1]                3191.4405           3198.8847           3205.4206
  Irrep                           A                   A                   A
  Reduced mass [u]              1.0634              1.0581              1.0761
  Force const [mDyne/A]         6.3813              6.3795              6.5142

  Vibration                       40                  41                  42
  Freq [cm^-1]                3207.8828           3227.5877           3252.2268
  Irrep                           A                   A                   A
  Reduced mass [u]              1.0736              1.0914              1.1052
  Force const [mDyne/A]         6.5092              6.6989              6.8874

  Vibration                       43                  44                  45
  Freq [cm^-1]                3261.9613           3266.8835           4115.2209
  Irrep                           A                   A                   A
  Reduced mass [u]              1.1028              1.1024              1.0669
  Force const [mDyne/A]         6.9136              6.9320             10.6458

  ==> Thermochemistry Components <==

  Entropy, S
    Electronic S            0.000 [cal/(mol K)]        0.000 [J/(mol K)]       0.00000000 [mEh/K] (multiplicity = 1)
    Translational S        38.823 [cal/(mol K)]      162.437 [J/(mol K)]       0.06186912 [mEh/K] (mol. weight = 74.0732 [u], P = 101325.00 [Pa])
    Rotational S           26.027 [cal/(mol K)]      108.899 [J/(mol K)]       0.04147743 [mEh/K] (symmetry no. = 1)
    Vibrational S          13.725 [cal/(mol K)]       57.426 [J/(mol K)]       0.02187244 [mEh/K]
  Total S                  78.576 [cal/(mol K)]      328.762 [J/(mol K)]       0.12521899 [mEh/K]
  Correction S              0.000 [cal/(mol K)]        0.000 [J/(mol K)]       0.00000000 [mEh/K]

  Constant volume heat capacity, Cv
    Electronic Cv           0.000 [cal/(mol K)]        0.000 [J/(mol K)]       0.00000000 [mEh/K]
    Translational Cv        2.981 [cal/(mol K)]       12.472 [J/(mol K)]       0.00475022 [mEh/K]
    Rotational Cv           2.981 [cal/(mol K)]       12.472 [J/(mol K)]       0.00475022 [mEh/K]
    Vibrational Cv         15.701 [cal/(mol K)]       65.693 [J/(mol K)]       0.02502129 [mEh/K]
  Total Cv                 21.663 [cal/(mol K)]       90.637 [J/(mol K)]       0.03452173 [mEh/K]
  Correction Cv             0.000 [cal/(mol K)]        0.000 [J/(mol K)]       0.00000000 [mEh/K]

  Constant pressure heat capacity, Cp
    Electronic Cp           0.000 [cal/(mol K)]        0.000 [J/(mol K)]       0.00000000 [mEh/K]
    Translational Cp        4.968 [cal/(mol K)]       20.786 [J/(mol K)]       0.00791704 [mEh/K]
    Rotational Cp           2.981 [cal/(mol K)]       12.472 [J/(mol K)]       0.00475022 [mEh/K]
    Vibrational Cp         15.701 [cal/(mol K)]       65.693 [J/(mol K)]       0.02502129 [mEh/K]
  Total Cp                 23.650 [cal/(mol K)]       98.951 [J/(mol K)]       0.03768854 [mEh/K]
  Correction Cp             0.000 [cal/(mol K)]        0.000 [J/(mol K)]       0.00000000 [mEh/K]

  ==> Thermochemistry Energy Analysis <==

  Raw electronic energy, E0
  Total E0, Electronic energy at well bottom at 0 [K]                 -232.14333671 [Eh]

  Zero-point energy, ZPE_vib = Sum_i nu_i / 2
    Electronic ZPE          0.000 [kcal/mol]        0.000 [kJ/mol]       0.00000000 [Eh]
    Translational ZPE       0.000 [kcal/mol]        0.000 [kJ/mol]       0.00000000 [Eh]
    Rotational ZPE          0.000 [kcal/mol]        0.000 [kJ/mol]       0.00000000 [Eh]
    Vibrational ZPE        92.462 [kcal/mol]      386.860 [kJ/mol]       0.14734728 [Eh]       32338.986 [cm^-1]
  Correction ZPE           92.462 [kcal/mol]      386.860 [kJ/mol]       0.14734728 [Eh]       32338.986 [cm^-1]
  Total ZPE, Electronic energy at 0 [K]                               -231.99598943 [Eh]

  Thermal Energy, E (includes ZPE)
    Electronic E            0.000 [kcal/mol]        0.000 [kJ/mol]       0.00000000 [Eh]
    Translational E         0.889 [kcal/mol]        3.718 [kJ/mol]       0.00141628 [Eh]
    Rotational E            0.889 [kcal/mol]        3.718 [kJ/mol]       0.00141628 [Eh]
    Vibrational E          94.764 [kcal/mol]      396.492 [kJ/mol]       0.15101562 [Eh]
  Correction E             96.541 [kcal/mol]      403.928 [kJ/mol]       0.15384817 [Eh]
  Total E, Electronic energy at  298.15 [K]                           -231.98948854 [Eh]

  Enthalpy, H_trans = E_trans + k_B * T
    Electronic H            0.000 [kcal/mol]        0.000 [kJ/mol]       0.00000000 [Eh]
    Translational H         1.481 [kcal/mol]        6.197 [kJ/mol]       0.00236046 [Eh]
    Rotational H            0.889 [kcal/mol]        3.718 [kJ/mol]       0.00141628 [Eh]
    Vibrational H          94.764 [kcal/mol]      396.492 [kJ/mol]       0.15101562 [Eh]
  Correction H             97.134 [kcal/mol]      406.407 [kJ/mol]       0.15479236 [Eh]
  Total H, Enthalpy at  298.15 [K]                                    -231.98854435 [Eh]

  Gibbs free energy, G = H - T * S
    Electronic G            0.000 [kcal/mol]        0.000 [kJ/mol]       0.00000000 [Eh]
    Translational G       -10.094 [kcal/mol]      -42.233 [kJ/mol]      -0.01608581 [Eh]
    Rotational G           -6.871 [kcal/mol]      -28.750 [kJ/mol]      -0.01095022 [Eh]
    Vibrational G          90.672 [kcal/mol]      379.370 [kJ/mol]       0.14449435 [Eh]
  Correction G             73.706 [kcal/mol]      308.387 [kJ/mol]       0.11745832 [Eh]
  Total G, Free enthalpy at  298.15 [K]                               -232.02587840 [Eh]

*** Psi4 exiting successfully. Buy a developer a beer!
