                               Psi4 1.2.1 release

  ==> Input File <==

--------------------------------------------------------------------------
memory 100 Gb

molecule conf_01 {
0 1
  C    -0.657324116451    -0.467911503876     0.775778281506
  H    -0.326253455955    -1.500134913972     0.875169609193
  H    -1.406068335802    -0.457226783174    -0.008402130385
  C    -1.281197875301    -0.007217273578     2.092598179185
  H    -1.650683064132     1.011490600575     2.015338779382
  H    -0.558341599563    -0.034982657455     2.903617097621
  H    -2.117022096344    -0.640540579924     2.373600412860
  C     1.161471433421    -0.033938330002    -0.959730130395
  H     1.491026397753    -1.069694559982    -0.886890762114
  H     2.039733839999     0.576250766265    -1.162789162522
  O     0.215577004508     0.111334192233    -1.988951042744
  H     0.585896594536    -0.188337742783    -2.806791440721
  C     0.526811529878     0.401416205798     0.349981789178
  H     0.206353761610     1.435031173296     0.247634853194
  H     1.293547697739     0.382971116862     1.122511059286
}
set globals {
  reference rhf
  basis 6-31G(d)
}
frequency('scf', dertype=1)

--------------------------------------------------------------------------

    Molecular point group: c1
  Charge       = 0
  Multiplicity = 1
  Basis Set: 6-31G(D)
    Blend: 6-31G(D)
  Basis Set: (6-31G(D) AUX)
    Blend: CC-PVDZ-JKFIT
  @DF-RHF Final Energy:  -232.14525269155294
    Total Energy =                       -232.1452526915529688
    Molecular point group: c1
  Basis Set: 6-31G(D)
    Blend: 6-31G(D)
  Basis Set: (6-31G(D) AUX)
    Blend: CC-PVDZ-JKFIT
  Basis Set: 6-31G(D)
    Blend: 6-31G(D)
  Basis Set: (6-31G(D) AUX)
    Blend: CC-PVDZ-JKFIT
  @DF-RHF Final Energy:  -232.14525186578405
    Total Energy =                       -232.1452518657840187
  Basis Set: 6-31G(D)
    Blend: 6-31G(D)
  Basis Set: (6-31G(D) AUX)
    Blend: CC-PVDZ-JKFIT
  Basis Set: 6-31G(D)
    Blend: 6-31G(D)
  @DF-RHF Final Energy:  -232.14525186527368
    Total Energy =                       -232.1452518652736785
  @DF-RHF Final Energy:  -232.14525182622594
    Total Energy =                       -232.1452518262259446
  @DF-RHF Final Energy:  -232.14525182802345
    Total Energy =                       -232.1452518280234472
  @DF-RHF Final Energy:  -232.14525188934959
    Total Energy =                       -232.1452518893495949
  @DF-RHF Final Energy:  -232.14525188851022
    Total Energy =                       -232.1452518885101881
  @DF-RHF Final Energy:  -232.14525156852449
    Total Energy =                       -232.1452515685244862
  @DF-RHF Final Energy:  -232.14525156519875
    Total Energy =                       -232.1452515651987483
  @DF-RHF Final Energy:  -232.14524867760105
    Total Energy =                       -232.1452486776010460
  @DF-RHF Final Energy:  -232.14524864175897
    Total Energy =                       -232.1452486417589967
  @DF-RHF Final Energy:  -232.14525188470441
    Total Energy =                       -232.1452518847044075
  @DF-RHF Final Energy:  -232.14525188326530
    Total Energy =                       -232.1452518832653027
  @DF-RHF Final Energy:  -232.14525012674056
    Total Energy =                       -232.1452501267405637
  @DF-RHF Final Energy:  -232.14525011641132
    Total Energy =                       -232.1452501164113187
  @DF-RHF Final Energy:  -232.14525197997679
    Total Energy =                       -232.1452519799768197
  @DF-RHF Final Energy:  -232.14525198003554
    Total Energy =                       -232.1452519800355390
  @DF-RHF Final Energy:  -232.14524993966413
    Total Energy =                       -232.1452499396640974
  @DF-RHF Final Energy:  -232.14524992617450
    Total Energy =                       -232.1452499261744720
  @DF-RHF Final Energy:  -232.14525146617939
    Total Energy =                       -232.1452514661793884
  @DF-RHF Final Energy:  -232.14525164835291
    Total Energy =                       -232.1452516483528825
  @DF-RHF Final Energy:  -232.14525148470773
    Total Energy =                       -232.1452514847077282
  @DF-RHF Final Energy:  -232.14525149115218
    Total Energy =                       -232.1452514911521803
  @DF-RHF Final Energy:  -232.14525207407411
    Total Energy =                       -232.1452520740741079
  @DF-RHF Final Energy:  -232.14525206777182
    Total Energy =                       -232.1452520677718212
  @DF-RHF Final Energy:  -232.14525146488893
    Total Energy =                       -232.1452514648889291
  @DF-RHF Final Energy:  -232.14525146619431
    Total Energy =                       -232.1452514661942814
  @DF-RHF Final Energy:  -232.14525170275877
    Total Energy =                       -232.1452517027587987
  @DF-RHF Final Energy:  -232.14525170149003
    Total Energy =                       -232.1452517014900536
  @DF-RHF Final Energy:  -232.14525024737287
    Total Energy =                       -232.1452502473728714
  @DF-RHF Final Energy:  -232.14525023726873
    Total Energy =                       -232.1452502372687263
  @DF-RHF Final Energy:  -232.14524832991003
    Total Energy =                       -232.1452483299100322
  @DF-RHF Final Energy:  -232.14524829731590
    Total Energy =                       -232.1452482973159022
  @DF-RHF Final Energy:  -232.14524852089957
    Total Energy =                       -232.1452485208995995
  @DF-RHF Final Energy:  -232.14524849096276
    Total Energy =                       -232.1452484909627287
  @DF-RHF Final Energy:  -232.14524937076106
    Total Energy =                       -232.1452493707610643
  @DF-RHF Final Energy:  -232.14524934978908
    Total Energy =                       -232.1452493497890828
  @DF-RHF Final Energy:  -232.14524919674642
    Total Energy =                       -232.1452491967464198
  Basis Set: (6-31G(D) AUX)
    Blend: CC-PVDZ-JKFIT
  Basis Set: 6-31G(D)
    Blend: 6-31G(D)
  Basis Set: (6-31G(D) AUX)
    Blend: CC-PVDZ-JKFIT
  @DF-RHF Final Energy:  -232.14524918049949
    Total Energy =                       -232.1452491804994906
  Basis Set: 6-31G(D)
    Blend: 6-31G(D)
  Basis Set: (6-31G(D) AUX)
    Blend: CC-PVDZ-JKFIT
    Molecular point group: c1
  Charge       = 0
  Multiplicity = 1
  Basis Set: 6-31G(D)
    Blend: 6-31G(D)
  Basis Set: (6-31G(D) AUX)
    Blend: CC-PVDZ-JKFIT

    Orbital Energies [Eh]
    ---------------------

    Doubly Occupied:

       1A    -20.553191     2A    -11.268152     3A    -11.212126
       4A    -11.208592     5A    -11.204664     6A     -1.359911
       7A     -1.064578     8A     -0.973529     9A     -0.856017
      10A     -0.786328    11A     -0.705148    12A     -0.637877
      13A     -0.610162    14A     -0.591149    15A     -0.545796
      16A     -0.528155    17A     -0.512720    18A     -0.475093
      19A     -0.464899    20A     -0.457003    21A     -0.430111

  @DF-RHF Final Energy:  -232.14525269168271

   => Energetics <=

    Nuclear Repulsion Energy =            188.6754861507137946
    One-Electron Energy =                -688.7510763306154331
    Two-Electron Energy =                 267.9303374882189246
    Total Energy =                       -232.1452526916826855

  Dipole Moment: [D]
     X:     1.5063      Y:    -0.6325      Z:    -0.3631     Total:     1.6736

    Molecular point group: c1

    Geometry (in Angstrom), charge = 0, multiplicity = 1:

       Center              X                  Y                   Z               Mass
    ------------   -----------------  -----------------  -----------------  -----------------
         C           -0.657324116451    -0.467911503876     0.775778281506    12.000000000000
         H           -0.326253455955    -1.500134913972     0.875169609193     1.007825032070
         H           -1.406068335802    -0.457226783174    -0.008402130385     1.007825032070
         C           -1.281197875301    -0.007217273578     2.092598179185    12.000000000000
         H           -1.650683064132     1.011490600575     2.015338779382     1.007825032070
         H           -0.558341599563    -0.034982657455     2.903617097621     1.007825032070
         H           -2.117022096344    -0.640540579924     2.373600412860     1.007825032070
         C            1.161471433421    -0.033938330002    -0.959730130395    12.000000000000
         H            1.491026397753    -1.069694559982    -0.886890762114     1.007825032070
         H            2.039733839999     0.576250766265    -1.162789162522     1.007825032070
         O            0.215577004508     0.111334192233    -1.988951042744    15.994914619560
         H            0.585896594536    -0.188337742783    -2.806791440721     1.007825032070
         C            0.526811529878     0.401416205798     0.349981789178    12.000000000000
         H            0.206353761610     1.435031173296     0.247634853194     1.007825032070
         H            1.293547697739     0.382971116862     1.122511059286     1.007825032070

  Basis Set: 6-31G(D)
    Blend: 6-31G(D)
  Basis Set: (6-31G(D) AUX)
    Blend: CC-PVDZ-JKFIT

  -Total Gradient:
     Atom            X                  Y                   Z
    ------   -----------------  -----------------  -----------------
       1        0.000000157251    -0.000000166249     0.000000154221
       2        0.000000095816    -0.000000027554    -0.000000015234
       3        0.000000020966     0.000000009796     0.000000085774
       4       -0.000000111624     0.000000063832    -0.000000019697
       5        0.000000127761     0.000000021388     0.000000029617
       6       -0.000000032237    -0.000000121147     0.000000039514
       7       -0.000000085130     0.000000060038    -0.000000020189
       8        0.000000173504    -0.000000103437    -0.000000047372
       9       -0.000000065340    -0.000000026342    -0.000000129326
      10       -0.000000025715    -0.000000012205    -0.000000095351
      11        0.000000068224     0.000000030638     0.000000199326
      12        0.000000109068    -0.000000005184     0.000000084581
      13       -0.000000350555     0.000000213540    -0.000000199983
      14       -0.000000008711     0.000000108093     0.000000026825
      15       -0.000000073280    -0.000000045205    -0.000000092703

  Vibration                       7                   8                   9
  Freq [cm^-1]                 94.2505             156.6929            255.1119
  Irrep                           A                   A                   A
  Reduced mass [u]              2.0585              2.8481              1.4777
  Force const [mDyne/A]         0.0108              0.0412              0.0567

  Vibration                       10                  11                  12
  Freq [cm^-1]                 264.9739            313.9114            367.6400
  Irrep                           A                   A                   A
  Reduced mass [u]              1.1584              1.3128              2.8234
  Force const [mDyne/A]         0.0479              0.0762              0.2248

  Vibration                       13                  14                  15
  Freq [cm^-1]                 545.6143            803.1341            898.8258
  Irrep                           A                   A                   A
  Reduced mass [u]              2.4299              1.1349              1.9543
  Force const [mDyne/A]         0.4262              0.4313              0.9302

  Vibration                       16                  17                  18
  Freq [cm^-1]                 929.0267           1038.5725           1066.2952
  Irrep                           A                   A                   A
  Reduced mass [u]              1.4454              1.9576              1.2668
  Force const [mDyne/A]         0.7350              1.2441              0.8486

  Vibration                       19                  20                  21
  Freq [cm^-1]                1118.1568           1184.7889           1226.4232
  Irrep                           A                   A                   A
  Reduced mass [u]              2.4719              2.0820              1.8590
  Force const [mDyne/A]         1.8209              1.7219              1.6474

  Vibration                       22                  23                  24
  Freq [cm^-1]                1268.8557           1353.9285           1379.3160
  Irrep                           A                   A                   A
  Reduced mass [u]              1.8477              1.4147              1.1761
  Force const [mDyne/A]         1.7527              1.5280              1.3183

  Vibration                       25                  26                  27
  Freq [cm^-1]                1424.8865           1458.0551           1465.6555
  Irrep                           A                   A                   A
  Reduced mass [u]              1.2467              1.1284              1.2428
  Force const [mDyne/A]         1.4913              1.4133              1.5729

  Vibration                       28                  29                  30
  Freq [cm^-1]                1554.9891           1567.0344           1607.7945
  Irrep                           A                   A                   A
  Reduced mass [u]              1.4193              1.3512              1.4522
  Force const [mDyne/A]         2.0220              1.9549              2.2118

  Vibration                       31                  32                  33
  Freq [cm^-1]                1628.3279           1640.0697           1644.6735
  Irrep                           A                   A                   A
  Reduced mass [u]              1.1138              1.0539              1.0424
  Force const [mDyne/A]         1.7399              1.6703              1.6612

  Vibration                       34                  35                  36
  Freq [cm^-1]                1655.6500           1679.9288           3168.9756
  Irrep                           A                   A                   A
  Reduced mass [u]              1.0914              1.0961              1.0580
  Force const [mDyne/A]         1.7626              1.8225              6.2597

  Vibration                       37                  38                  39
  Freq [cm^-1]                3187.9345           3189.7578           3196.5868
  Irrep                           A                   A                   A
  Reduced mass [u]              1.0780              1.0611              1.0542
  Force const [mDyne/A]         6.4551              6.3609              6.3465

  Vibration                       40                  41                  42
  Freq [cm^-1]                3204.1653           3232.6734           3243.9631
  Irrep                           A                   A                   A
  Reduced mass [u]              1.0860              1.0965              1.1001
  Force const [mDyne/A]         6.5689              6.7511              6.8210

  Vibration                       43                  44                  45
  Freq [cm^-1]                3260.6250           3270.7216           4116.8096
  Irrep                           A                   A                   A
  Reduced mass [u]              1.1022              1.0997              1.0670
  Force const [mDyne/A]         6.9041              6.9315             10.6542

  ==> Thermochemistry Components <==

  Entropy, S
    Electronic S            0.000 [cal/(mol K)]        0.000 [J/(mol K)]       0.00000000 [mEh/K] (multiplicity = 1)
    Translational S        38.823 [cal/(mol K)]      162.437 [J/(mol K)]       0.06186912 [mEh/K] (mol. weight = 74.0732 [u], P = 101325.00 [Pa])
    Rotational S           25.986 [cal/(mol K)]      108.727 [J/(mol K)]       0.04141186 [mEh/K] (symmetry no. = 1)
    Vibrational S          13.401 [cal/(mol K)]       56.068 [J/(mol K)]       0.02135531 [mEh/K]
  Total S                  78.210 [cal/(mol K)]      327.233 [J/(mol K)]       0.12463629 [mEh/K]
  Correction S              0.000 [cal/(mol K)]        0.000 [J/(mol K)]       0.00000000 [mEh/K]

  Constant volume heat capacity, Cv
    Electronic Cv           0.000 [cal/(mol K)]        0.000 [J/(mol K)]       0.00000000 [mEh/K]
    Translational Cv        2.981 [cal/(mol K)]       12.472 [J/(mol K)]       0.00475022 [mEh/K]
    Rotational Cv           2.981 [cal/(mol K)]       12.472 [J/(mol K)]       0.00475022 [mEh/K]
    Vibrational Cv         15.661 [cal/(mol K)]       65.527 [J/(mol K)]       0.02495797 [mEh/K]
  Total Cv                 21.623 [cal/(mol K)]       90.471 [J/(mol K)]       0.03445841 [mEh/K]
  Correction Cv             0.000 [cal/(mol K)]        0.000 [J/(mol K)]       0.00000000 [mEh/K]

  Constant pressure heat capacity, Cp
    Electronic Cp           0.000 [cal/(mol K)]        0.000 [J/(mol K)]       0.00000000 [mEh/K]
    Translational Cp        4.968 [cal/(mol K)]       20.786 [J/(mol K)]       0.00791704 [mEh/K]
    Rotational Cp           2.981 [cal/(mol K)]       12.472 [J/(mol K)]       0.00475022 [mEh/K]
    Vibrational Cp         15.661 [cal/(mol K)]       65.527 [J/(mol K)]       0.02495797 [mEh/K]
  Total Cp                 23.610 [cal/(mol K)]       98.785 [J/(mol K)]       0.03762522 [mEh/K]
  Correction Cp             0.000 [cal/(mol K)]        0.000 [J/(mol K)]       0.00000000 [mEh/K]

  ==> Thermochemistry Energy Analysis <==

  Raw electronic energy, E0
  Total E0, Electronic energy at well bottom at 0 [K]                 -232.14525269 [Eh]

  Zero-point energy, ZPE_vib = Sum_i nu_i / 2
    Electronic ZPE          0.000 [kcal/mol]        0.000 [kJ/mol]       0.00000000 [Eh]
    Translational ZPE       0.000 [kcal/mol]        0.000 [kJ/mol]       0.00000000 [Eh]
    Rotational ZPE          0.000 [kcal/mol]        0.000 [kJ/mol]       0.00000000 [Eh]
    Vibrational ZPE        92.443 [kcal/mol]      386.781 [kJ/mol]       0.14731722 [Eh]       32332.387 [cm^-1]
  Correction ZPE           92.443 [kcal/mol]      386.781 [kJ/mol]       0.14731722 [Eh]       32332.387 [cm^-1]
  Total ZPE, Electronic energy at 0 [K]                               -231.99793548 [Eh]

  Thermal Energy, E (includes ZPE)
    Electronic E            0.000 [kcal/mol]        0.000 [kJ/mol]       0.00000000 [Eh]
    Translational E         0.889 [kcal/mol]        3.718 [kJ/mol]       0.00141628 [Eh]
    Rotational E            0.889 [kcal/mol]        3.718 [kJ/mol]       0.00141628 [Eh]
    Vibrational E          94.720 [kcal/mol]      396.308 [kJ/mol]       0.15094587 [Eh]
  Correction E             96.497 [kcal/mol]      403.745 [kJ/mol]       0.15377843 [Eh]
  Total E, Electronic energy at  298.15 [K]                           -231.99147427 [Eh]

  Enthalpy, H_trans = E_trans + k_B * T
    Electronic H            0.000 [kcal/mol]        0.000 [kJ/mol]       0.00000000 [Eh]
    Translational H         1.481 [kcal/mol]        6.197 [kJ/mol]       0.00236046 [Eh]
    Rotational H            0.889 [kcal/mol]        3.718 [kJ/mol]       0.00141628 [Eh]
    Vibrational H          94.720 [kcal/mol]      396.308 [kJ/mol]       0.15094587 [Eh]
  Correction H             97.090 [kcal/mol]      406.224 [kJ/mol]       0.15472261 [Eh]
  Total H, Enthalpy at  298.15 [K]                                    -231.99053008 [Eh]

  Gibbs free energy, G = H - T * S
    Electronic G            0.000 [kcal/mol]        0.000 [kJ/mol]       0.00000000 [Eh]
    Translational G       -10.094 [kcal/mol]      -42.233 [kJ/mol]      -0.01608581 [Eh]
    Rotational G           -6.859 [kcal/mol]      -28.698 [kJ/mol]      -0.01093067 [Eh]
    Vibrational G          90.725 [kcal/mol]      379.592 [kJ/mol]       0.14457878 [Eh]
  Correction G             73.771 [kcal/mol]      308.660 [kJ/mol]       0.11756230 [Eh]
  Total G, Free enthalpy at  298.15 [K]                               -232.02769039 [Eh]

*** Psi4 exiting successfully. Buy a developer a beer!
