                               Psi4 1.2.1 release

  ==> Input File <==

--------------------------------------------------------------------------
memory 100 Gb

molecule conf_01 {
0 1
  C    -2.458801342100    -0.641093572700     0.404168152800
  H    -2.127276620200    -1.673179089400     0.503616029000
  H    -3.207132608100    -0.630748766000    -0.380433900300
  C    -3.083618186200    -0.180822056700     1.720695821000
  H    -3.453620451900     0.837698801100     1.643318803500
  H    -2.361167314500    -0.208213349800     2.532101715300
  H    -3.919245358500    -0.814612499200     2.001256554500
  C    -0.639557094500    -0.205895333700    -1.330582072500
  H    -0.309461068400    -1.241518356700    -1.257859436900
  H     0.238479226100     0.404787920600    -1.533269341500
  O    -1.585175951200    -0.060944981600    -2.359997623000
  H    -1.214385830700    -0.360274222500    -3.177761382400
  C    -1.274864583000     0.228847366400    -0.020964563100
  H    -1.595740935600     1.262364154500    -0.123175703900
  H    -0.508431881200     0.210603985700     0.751886947600
}
set globals {
  reference rhf
  g_convergence gau_tight
  basis 6-31G(d)
}
optimize('scf')

--------------------------------------------------------------------------

    Molecular point group: c1
  Charge       = 0
  Multiplicity = 1
  Basis Set: 6-31G(D)
    Blend: 6-31G(D)
  Basis Set: (6-31G(D) AUX)
    Blend: CC-PVDZ-JKFIT
  @DF-RHF Final Energy:  -232.14525268129637
    Total Energy =                       -232.1452526812963697
    Molecular point group: c1
  Basis Set: 6-31G(D)
    Blend: 6-31G(D)
  Basis Set: (6-31G(D) AUX)
    Blend: CC-PVDZ-JKFIT
  Basis Set: 6-31G(D)
    Blend: 6-31G(D)
  Basis Set: (6-31G(D) AUX)
    Blend: CC-PVDZ-JKFIT
  @DF-RHF Final Energy:  -232.14525268675220
    Total Energy =                       -232.1452526867522010
  Basis Set: 6-31G(D)
    Blend: 6-31G(D)
  Basis Set: (6-31G(D) AUX)
    Blend: CC-PVDZ-JKFIT
  Basis Set: 6-31G(D)
    Blend: 6-31G(D)
  @DF-RHF Final Energy:  -232.14525269045609
    Total Energy =                       -232.1452526904560614
  @DF-RHF Final Energy:  -232.14525269076159
    Total Energy =                       -232.1452526907615947
  @DF-RHF Final Energy:  -232.14525269133807
    Total Energy =                       -232.1452526913381007
  @DF-RHF Final Energy:  -232.14525269155050
    Total Energy =                       -232.1452526915505246
  @DF-RHF Final Energy:  -232.14525269147057
    Total Energy =                       -232.1452526914705459
  @DF-RHF Final Energy:  -232.14525269128177
    Total Energy =                       -232.1452526912817689
  @DF-RHF Final Energy:  -232.14525269152912
    Total Energy =                       -232.1452526915291514
  @DF-RHF Final Energy:  -232.14525269158491
    Total Energy =                       -232.1452526915849148
  @DF-RHF Final Energy:  -232.14525269130070
    Total Energy =                       -232.1452526913006977
  @DF-RHF Final Energy:  -232.14525269161840
    Total Energy =                       -232.1452526916183956
  @DF-RHF Final Energy:  -232.14525269120048
    Total Energy =                       -232.1452526912004828
  Basis Set: (6-31G(D) AUX)
    Blend: CC-PVDZ-JKFIT
  Basis Set: 6-31G(D)
    Blend: 6-31G(D)
  Basis Set: (6-31G(D) AUX)
    Blend: CC-PVDZ-JKFIT
  @DF-RHF Final Energy:  -232.14525269154564
    Total Energy =                       -232.1452526915456360
  Basis Set: 6-31G(D)
    Blend: 6-31G(D)
  Basis Set: (6-31G(D) AUX)
    Blend: CC-PVDZ-JKFIT
  Charge       = 0
  Multiplicity = 1
  Basis Set: 6-31G(D)
    Blend: 6-31G(D)
  Basis Set: (6-31G(D) AUX)
    Blend: CC-PVDZ-JKFIT

    Orbital Energies [Eh]
    ---------------------

    Doubly Occupied:

       1A    -20.553190     2A    -11.268152     3A    -11.212126
       4A    -11.208592     5A    -11.204664     6A     -1.359911
       7A     -1.064578     8A     -0.973529     9A     -0.856017
      10A     -0.786328    11A     -0.705148    12A     -0.637877
      13A     -0.610162    14A     -0.591149    15A     -0.545796
      16A     -0.528155    17A     -0.512720    18A     -0.475093
      19A     -0.464899    20A     -0.457003    21A     -0.430111

  @DF-RHF Final Energy:  -232.14525269155357

   => Energetics <=

    Nuclear Repulsion Energy =            188.6754861506919667
    One-Electron Energy =                -688.7510773652458056
    Two-Electron Energy =                 267.9303385230002732
    Total Energy =                       -232.1452526915535373

  Dipole Moment: [D]
     X:     1.5063      Y:    -0.6325      Z:    -0.3631     Total:     1.6736

    Molecular point group: c1
  Basis Set: 6-31G(D)
    Blend: 6-31G(D)
  Basis Set: (6-31G(D) AUX)
    Blend: CC-PVDZ-JKFIT

  -Total Gradient:
     Atom            X                  Y                   Z
    ------   -----------------  -----------------  -----------------
       1        0.000000148514    -0.000000170707     0.000000162172
       2        0.000000093781    -0.000000026187    -0.000000016599
       3        0.000000023831     0.000000009794     0.000000086823
       4       -0.000000115256     0.000000069003    -0.000000035064
       5        0.000000134560     0.000000015000     0.000000033554
       6       -0.000000033046    -0.000000125587     0.000000045356
       7       -0.000000083112     0.000000066518    -0.000000024134
       8        0.000000180900    -0.000000106960    -0.000000038830
       9       -0.000000065158    -0.000000025784    -0.000000130883
      10       -0.000000022438    -0.000000008741    -0.000000098887
      11        0.000000077488     0.000000049439     0.000000180314
      12        0.000000092759    -0.000000026166     0.000000097723
      13       -0.000000357262     0.000000223564    -0.000000192891
      14       -0.000000004382     0.000000101549     0.000000025186
      15       -0.000000071179    -0.000000044736    -0.000000093837

  **** Optimization is complete! (in 15 steps) ****
    Final optimized geometry and variables:
    Molecular point group: c1

    Geometry (in Angstrom), charge = 0, multiplicity = 1:

    C           -0.657324116451    -0.467911503876     0.775778281506
    H           -0.326253455955    -1.500134913972     0.875169609193
    H           -1.406068335802    -0.457226783174    -0.008402130385
    C           -1.281197875301    -0.007217273578     2.092598179185
    H           -1.650683064132     1.011490600575     2.015338779382
    H           -0.558341599563    -0.034982657455     2.903617097621
    H           -2.117022096344    -0.640540579924     2.373600412860
    C            1.161471433421    -0.033938330002    -0.959730130395
    H            1.491026397753    -1.069694559982    -0.886890762114
    H            2.039733839999     0.576250766265    -1.162789162522
    O            0.215577004508     0.111334192233    -1.988951042744
    H            0.585896594536    -0.188337742783    -2.806791440721
    C            0.526811529878     0.401416205798     0.349981789178
    H            0.206353761610     1.435031173296     0.247634853194
    H            1.293547697739     0.382971116862     1.122511059286

*** Psi4 exiting successfully. Buy a developer a beer!
