                               Psi4 1.2.1 release

  ==> Input File <==

--------------------------------------------------------------------------
memory 100 Gb

molecule conf_01 {
0 1
  C    -0.434924836942    -0.078958077650    -0.130434828770
  H    -0.001310947147    -0.231601093363    -1.119038504346
  H    -1.279113873114     0.599837972156    -0.253647215479
  C    -0.919313365271    -1.405640460436     0.429398085190
  H    -1.329347309076    -1.229974524736     1.420625720882
  H    -0.059042113465    -2.057095614610     0.560219950236
  C    -1.962906610216    -2.086571901225    -0.456780132762
  H    -1.547022906890    -2.250223749406    -1.449051374379
  H    -2.815970665889    -1.424007224422    -0.589449513541
  C    -2.445268515410    -3.420211380921     0.113013301274
  H    -3.184459950023    -3.881538279235    -0.534796857894
  H    -2.898821578897    -3.286443529630     1.090934738351
  H    -1.620851462865    -4.118558912392     0.225262037336
  O     0.510183969758     0.457301832786     0.750043184907
  H     0.824236423551     1.288106753352     0.410550450113
  C     3.050974371662     2.815546621751    -0.448554701270
  H     3.480110008589     3.662787176179    -0.974254317128
  H     3.555915434338     2.693068727314     0.504391415907
  H     3.206291763876     1.924774568417    -1.039204473185
  O     1.661930295042     2.964300195611    -0.285175256948
  H     1.480996667642     3.728514863962     0.243999056130
}
set globals {
  reference rhf
  basis 6-31G(d)
}
frequency('scf', dertype=1)
--------------------------------------------------------------------------

    Molecular point group: c1
  Charge       = 0
  Multiplicity = 1
  Basis Set: 6-31G(D)
    Blend: 6-31G(D)
  Basis Set: (6-31G(D) AUX)
    Blend: CC-PVDZ-JKFIT
  @DF-RHF Final Energy:  -347.18902729384598
    Total Energy =                       -347.1890272938459816
    Molecular point group: c1
  Basis Set: 6-31G(D)
    Blend: 6-31G(D)
  Basis Set: (6-31G(D) AUX)
    Blend: CC-PVDZ-JKFIT
  Basis Set: 6-31G(D)
    Blend: 6-31G(D)
  Basis Set: (6-31G(D) AUX)
    Blend: CC-PVDZ-JKFIT
  @DF-RHF Final Energy:  -347.18902654811444
    Total Energy =                       -347.1890265481144411
  Basis Set: 6-31G(D)
    Blend: 6-31G(D)
  Basis Set: (6-31G(D) AUX)
    Blend: CC-PVDZ-JKFIT
  Basis Set: 6-31G(D)
    Blend: 6-31G(D)
  @DF-RHF Final Energy:  -347.18902654808738
    Total Energy =                       -347.1890265480873836
  @DF-RHF Final Energy:  -347.18902656061584
    Total Energy =                       -347.1890265606158437
  @DF-RHF Final Energy:  -347.18902656185810
    Total Energy =                       -347.1890265618580997
  @DF-RHF Final Energy:  -347.18902651767513
    Total Energy =                       -347.1890265176751313
  @DF-RHF Final Energy:  -347.18902651790296
    Total Energy =                       -347.1890265179029598
  @DF-RHF Final Energy:  -347.18902580231753
    Total Energy =                       -347.1890258023175306
  @DF-RHF Final Energy:  -347.18902580222021
    Total Energy =                       -347.1890258022202147
  @DF-RHF Final Energy:  -347.18902641034003
    Total Energy =                       -347.1890264103400341
  @DF-RHF Final Energy:  -347.18902640944924
    Total Energy =                       -347.1890264094492409
  @DF-RHF Final Energy:  -347.18902360511345
    Total Energy =                       -347.1890236051134480
  @DF-RHF Final Energy:  -347.18902356876958
    Total Energy =                       -347.1890235687695849
  @DF-RHF Final Energy:  -347.18902435544021
    Total Energy =                       -347.1890243554402105
  @DF-RHF Final Energy:  -347.18902433159747
    Total Energy =                       -347.1890243315974658
  @DF-RHF Final Energy:  -347.18902503160052
    Total Energy =                       -347.1890250316005222
  @DF-RHF Final Energy:  -347.18902503932327
    Total Energy =                       -347.1890250393232691
  @DF-RHF Final Energy:  -347.18902644672784
    Total Energy =                       -347.1890264467278371
  @DF-RHF Final Energy:  -347.18902644681100
    Total Energy =                       -347.1890264468109990
  @DF-RHF Final Energy:  -347.18902652705628
    Total Energy =                       -347.1890265270562850
  @DF-RHF Final Energy:  -347.18902508169401
    Total Energy =                       -347.1890250816940124
  @DF-RHF Final Energy:  -347.18902532340940
    Total Energy =                       -347.1890253234093962
  @DF-RHF Final Energy:  -347.18902532349603
    Total Energy =                       -347.1890253234960255
  @DF-RHF Final Energy:  -347.18902422518806
    Total Energy =                       -347.1890242251880636
  @DF-RHF Final Energy:  -347.18902424170022
    Total Energy =                       -347.1890242417002241
  @DF-RHF Final Energy:  -347.18902518101811
    Total Energy =                       -347.1890251810181098
  @DF-RHF Final Energy:  -347.18902517268964
    Total Energy =                       -347.1890251726896395
  @DF-RHF Final Energy:  -347.18902474577260
    Total Energy =                       -347.1890247457725991
  @DF-RHF Final Energy:  -347.18902475606495
    Total Energy =                       -347.1890247560649527
  @DF-RHF Final Energy:  -347.18902566827268
    Total Energy =                       -347.1890256682726772
  @DF-RHF Final Energy:  -347.18902567141777
    Total Energy =                       -347.1890256714177667
  @DF-RHF Final Energy:  -347.18902593023688
    Total Energy =                       -347.1890259302368804
  @DF-RHF Final Energy:  -347.18902593346672
    Total Energy =                       -347.1890259334667235
  @DF-RHF Final Energy:  -347.18902504565068
    Total Energy =                       -347.1890250456506806
  @DF-RHF Final Energy:  -347.18902506299037
    Total Energy =                       -347.1890250629903676
  @DF-RHF Final Energy:  -347.18902543171993
    Total Energy =                       -347.1890254317199265
  @DF-RHF Final Energy:  -347.18902542255114
    Total Energy =                       -347.1890254225511399
  @DF-RHF Final Energy:  -347.18901922688337
    Total Energy =                       -347.1890192268833744
  Basis Set: (6-31G(D) AUX)
    Blend: CC-PVDZ-JKFIT
  Basis Set: 6-31G(D)
    Blend: 6-31G(D)
  Basis Set: (6-31G(D) AUX)
    Blend: CC-PVDZ-JKFIT
  @DF-RHF Final Energy:  -347.18901934496836
    Total Energy =                       -347.1890193449683579
  Basis Set: 6-31G(D)
    Blend: 6-31G(D)
  Basis Set: (6-31G(D) AUX)
    Blend: CC-PVDZ-JKFIT
    Molecular point group: c1
  Charge       = 0
  Multiplicity = 1
  Basis Set: 6-31G(D)
    Blend: 6-31G(D)
  Basis Set: (6-31G(D) AUX)
    Blend: CC-PVDZ-JKFIT

    Orbital Energies [Eh]
    ---------------------

    Doubly Occupied:

       1A    -20.581709     2A    -20.522782     3A    -11.280889
       4A    -11.249902     5A    -11.209661     6A    -11.203223
       7A    -11.199167     8A     -1.383209     9A     -1.333866
      10A     -1.059444    11A     -0.962239    12A     -0.943821
      13A     -0.842390    14A     -0.784155    15A     -0.715891
      16A     -0.675041    17A     -0.645859    18A     -0.636273
      19A     -0.612997    20A     -0.590685    21A     -0.579505
      22A     -0.548618    23A     -0.518809    24A     -0.510766
      25A     -0.495586    26A     -0.468976    27A     -0.464182
      28A     -0.460322    29A     -0.442663    30A     -0.411418

  @DF-RHF Final Energy:  -347.18902729425093

   => Energetics <=

    Nuclear Repulsion Energy =            307.1659799717483565
    One-Electron Energy =               -1082.0419162202208554
    Two-Electron Energy =                 427.6869089542215647
    Total Energy =                       -347.1890272942509341

  Dipole Moment: [D]
     X:     1.3360      Y:     2.5159      Z:    -0.8101     Total:     2.9615

    Molecular point group: c1

    Geometry (in Angstrom), charge = 0, multiplicity = 1:

       Center              X                  Y                   Z               Mass
    ------------   -----------------  -----------------  -----------------  -----------------
         C           -0.434924836942    -0.078958077650    -0.130434828770    12.000000000000
         H           -0.001310947147    -0.231601093363    -1.119038504346     1.007825032070
         H           -1.279113873114     0.599837972156    -0.253647215479     1.007825032070
         C           -0.919313365271    -1.405640460436     0.429398085190    12.000000000000
         H           -1.329347309076    -1.229974524736     1.420625720882     1.007825032070
         H           -0.059042113465    -2.057095614610     0.560219950236     1.007825032070
         C           -1.962906610216    -2.086571901225    -0.456780132762    12.000000000000
         H           -1.547022906890    -2.250223749406    -1.449051374379     1.007825032070
         H           -2.815970665889    -1.424007224422    -0.589449513541     1.007825032070
         C           -2.445268515410    -3.420211380921     0.113013301274    12.000000000000
         H           -3.184459950023    -3.881538279235    -0.534796857894     1.007825032070
         H           -2.898821578897    -3.286443529630     1.090934738351     1.007825032070
         H           -1.620851462865    -4.118558912392     0.225262037336     1.007825032070
         O            0.510183969758     0.457301832786     0.750043184907    15.994914619560
         H            0.824236423551     1.288106753352     0.410550450113     1.007825032070
         C            3.050974371662     2.815546621751    -0.448554701270    12.000000000000
         H            3.480110008589     3.662787176179    -0.974254317128     1.007825032070
         H            3.555915434338     2.693068727314     0.504391415907     1.007825032070
         H            3.206291763876     1.924774568417    -1.039204473185     1.007825032070
         O            1.661930295042     2.964300195611    -0.285175256948    15.994914619560
         H            1.480996667642     3.728514863962     0.243999056130     1.007825032070

  Basis Set: 6-31G(D)
    Blend: 6-31G(D)
  Basis Set: (6-31G(D) AUX)
    Blend: CC-PVDZ-JKFIT

  -Total Gradient:
     Atom            X                  Y                   Z
    ------   -----------------  -----------------  -----------------
       1        0.000000063412    -0.000000193213     0.000000254408
       2       -0.000000052555     0.000000318606     0.000000512119
       3        0.000000679496    -0.000000183511     0.000000104802
       4       -0.000000114927    -0.000001273919     0.000000953515
       5       -0.000000221215    -0.000000141642    -0.000000593193
       6       -0.000000501882     0.000000073059    -0.000000408004
       7        0.000001003285     0.000001522715     0.000000077346
       8       -0.000000116198    -0.000000322891     0.000000593231
       9        0.000000275329    -0.000000540689     0.000000364408
      10        0.000000300964     0.000000240599     0.000000247534
      11        0.000000284492     0.000000135885     0.000000310939
      12        0.000000128307     0.000000026726    -0.000000588279
      13       -0.000000419706     0.000000394988    -0.000000234284
      14       -0.000000240866     0.000000844807    -0.000003962512
      15       -0.000001608500    -0.000002209461     0.000003247107
      16       -0.000002284624     0.000000780114     0.000001628137
      17        0.000000560838    -0.000000521646     0.000000167201
      18        0.000000291397    -0.000000109153    -0.000000613633
      19       -0.000001004554     0.000000321888     0.000000064990
      20        0.000002393791     0.000002019069    -0.000000913437
      21        0.000000583717    -0.000001182336    -0.000001212397

  Vibration                       7                   8                   9
  Freq [cm^-1]                 16.3313             20.3533             26.6195
  Irrep                           A                   A                   A
  Reduced mass [u]              2.7829              2.5455              1.5746
  Force const [mDyne/A]         0.0004              0.0006              0.0007

  Vibration                       10                  11                  12
  Freq [cm^-1]                 54.6328             81.2130             123.2907
  Irrep                           A                   A                   A
  Reduced mass [u]              3.5404              1.6859              1.8649
  Force const [mDyne/A]         0.0062              0.0066              0.0167

  Vibration                       13                  14                  15
  Freq [cm^-1]                 130.9401            138.2049            221.3124
  Irrep                           A                   A                   A
  Reduced mass [u]              2.6892              4.2776              3.1858
  Force const [mDyne/A]         0.0272              0.0481              0.0919

  Vibration                       16                  17                  18
  Freq [cm^-1]                 265.7204            375.3537            423.6177
  Irrep                           A                   A                   A
  Reduced mass [u]              1.1263              1.1164              3.2444
  Force const [mDyne/A]         0.0469              0.0927              0.3430

  Vibration                       19                  20                  21
  Freq [cm^-1]                 483.8188            658.7296            797.3462
  Irrep                           A                   A                   A
  Reduced mass [u]              3.5992              1.0422              1.0723
  Force const [mDyne/A]         0.4964              0.2664              0.4017

  Vibration                       22                  23                  24
  Freq [cm^-1]                 878.5402            975.8215           1035.2798
  Irrep                           A                   A                   A
  Reduced mass [u]              1.1346              1.8502              1.1370
  Force const [mDyne/A]         0.5160              1.0380              0.7180

  Vibration                       25                  26                  27
  Freq [cm^-1]                1080.3884           1135.4588           1167.5677
  Irrep                           A                   A                   A
  Reduced mass [u]              3.3248              2.1941              1.2259
  Force const [mDyne/A]         2.2866              1.6666              0.9846

  Vibration                       28                  29                  30
  Freq [cm^-1]                1172.1409           1198.8635           1225.2165
  Irrep                           A                   A                   A
  Reduced mass [u]              3.8196              3.0320              2.2980
  Force const [mDyne/A]         3.0919              2.5676              2.0325

  Vibration                       31                  32                  33
  Freq [cm^-1]                1290.9517           1305.7141           1370.3281
  Irrep                           A                   A                   A
  Reduced mass [u]              1.2640              1.6569              1.2984
  Force const [mDyne/A]         1.2411              1.6643              1.4365

  Vibration                       34                  35                  36
  Freq [cm^-1]                1388.9559           1440.8295           1446.0537
  Irrep                           A                   A                   A
  Reduced mass [u]              1.2351              1.1151              1.0827
  Force const [mDyne/A]         1.4039              1.3639              1.3339

  Vibration                       37                  38                  39
  Freq [cm^-1]                1466.6131           1504.4279           1541.6906
  Irrep                           A                   A                   A
  Reduced mass [u]              1.2849              1.2987              1.4603
  Force const [mDyne/A]         1.6283              1.7318              2.0449

  Vibration                       40                  41                  42
  Freq [cm^-1]                1566.6250           1627.4638           1635.8517
  Irrep                           A                   A                   A
  Reduced mass [u]              1.3137              1.3915              1.1516
  Force const [mDyne/A]         1.8996              2.1714              1.8157

  Vibration                       43                  44                  45
  Freq [cm^-1]                1637.0343           1644.3422           1644.6462
  Irrep                           A                   A                   A
  Reduced mass [u]              1.0726              1.0420              1.1168
  Force const [mDyne/A]         1.6936              1.6599              1.7798

  Vibration                       46                  47                  48
  Freq [cm^-1]                1650.1556           1656.0727           1661.3652
  Irrep                           A                   A                   A
  Reduced mass [u]              1.0494              1.1026              1.0484
  Force const [mDyne/A]         1.6837              1.7816              1.7049

  Vibration                       49                  50                  51
  Freq [cm^-1]                1684.9745           3156.0628           3175.8931
  Irrep                           A                   A                   A
  Reduced mass [u]              1.0935              1.0559              1.1073
  Force const [mDyne/A]         1.8292              6.1966              6.5800

  Vibration                       52                  53                  54
  Freq [cm^-1]                3185.6474           3197.2091           3204.9728
  Irrep                           A                   A                   A
  Reduced mass [u]              1.0588              1.0410              1.0387
  Force const [mDyne/A]         6.3305              6.2696              6.2863

  Vibration                       55                  56                  57
  Freq [cm^-1]                3205.5054           3206.4237           3243.8665
  Irrep                           A                   A                   A
  Reduced mass [u]              1.0542              1.1033              1.1062
  Force const [mDyne/A]         6.3818              6.6832              6.8582

  Vibration                       58                  59                  60
  Freq [cm^-1]                3260.1147           3261.3293           3262.2520
  Irrep                           A                   A                   A
  Reduced mass [u]              1.1026              1.1074              1.1041
  Force const [mDyne/A]         6.9046              6.9399              6.9230

  Vibration                       61                  62                  63
  Freq [cm^-1]                3322.7340           4050.6725           4115.1540
  Irrep                           A                   A                   A
  Reduced mass [u]              1.1016              1.0670              1.0670
  Force const [mDyne/A]         7.1658             10.3149             10.6456

  ==> Thermochemistry Components <==

  Entropy, S
    Electronic S            0.000 [cal/(mol K)]        0.000 [J/(mol K)]       0.00000000 [mEh/K] (multiplicity = 1)
    Translational S        39.895 [cal/(mol K)]      166.919 [J/(mol K)]       0.06357599 [mEh/K] (mol. weight = 106.0994 [u], P = 101325.00 [Pa])
    Rotational S           29.056 [cal/(mol K)]      121.572 [J/(mol K)]       0.04630414 [mEh/K] (symmetry no. = 1)
    Vibrational S          44.648 [cal/(mol K)]      186.806 [J/(mol K)]       0.07115063 [mEh/K]
  Total S                 113.599 [cal/(mol K)]      475.296 [J/(mol K)]       0.18103076 [mEh/K]
  Correction S              0.000 [cal/(mol K)]        0.000 [J/(mol K)]       0.00000000 [mEh/K]

  Constant volume heat capacity, Cv
    Electronic Cv           0.000 [cal/(mol K)]        0.000 [J/(mol K)]       0.00000000 [mEh/K]
    Translational Cv        2.981 [cal/(mol K)]       12.472 [J/(mol K)]       0.00475022 [mEh/K]
    Rotational Cv           2.981 [cal/(mol K)]       12.472 [J/(mol K)]       0.00475022 [mEh/K]
    Vibrational Cv         29.054 [cal/(mol K)]      121.561 [J/(mol K)]       0.04630006 [mEh/K]
  Total Cv                 35.015 [cal/(mol K)]      146.504 [J/(mol K)]       0.05580051 [mEh/K]
  Correction Cv             0.000 [cal/(mol K)]        0.000 [J/(mol K)]       0.00000000 [mEh/K]

  Constant pressure heat capacity, Cp
    Electronic Cp           0.000 [cal/(mol K)]        0.000 [J/(mol K)]       0.00000000 [mEh/K]
    Translational Cp        4.968 [cal/(mol K)]       20.786 [J/(mol K)]       0.00791704 [mEh/K]
    Rotational Cp           2.981 [cal/(mol K)]       12.472 [J/(mol K)]       0.00475022 [mEh/K]
    Vibrational Cp         29.054 [cal/(mol K)]      121.561 [J/(mol K)]       0.04630006 [mEh/K]
  Total Cp                 37.003 [cal/(mol K)]      154.819 [J/(mol K)]       0.05896732 [mEh/K]
  Correction Cp             0.000 [cal/(mol K)]        0.000 [J/(mol K)]       0.00000000 [mEh/K]

  ==> Thermochemistry Energy Analysis <==

  Raw electronic energy, E0
  Total E0, Electronic energy at well bottom at 0 [K]                 -347.18902729 [Eh]

  Zero-point energy, ZPE_vib = Sum_i nu_i / 2
    Electronic ZPE          0.000 [kcal/mol]        0.000 [kJ/mol]       0.00000000 [Eh]
    Translational ZPE       0.000 [kcal/mol]        0.000 [kJ/mol]       0.00000000 [Eh]
    Rotational ZPE          0.000 [kcal/mol]        0.000 [kJ/mol]       0.00000000 [Eh]
    Vibrational ZPE       128.231 [kcal/mol]      536.517 [kJ/mol]       0.20434862 [Eh]       44849.332 [cm^-1]
  Correction ZPE          128.231 [kcal/mol]      536.517 [kJ/mol]       0.20434862 [Eh]       44849.332 [cm^-1]
  Total ZPE, Electronic energy at 0 [K]                               -346.98467867 [Eh]

  Thermal Energy, E (includes ZPE)
    Electronic E            0.000 [kcal/mol]        0.000 [kJ/mol]       0.00000000 [Eh]
    Translational E         0.889 [kcal/mol]        3.718 [kJ/mol]       0.00141628 [Eh]
    Rotational E            0.889 [kcal/mol]        3.718 [kJ/mol]       0.00141628 [Eh]
    Vibrational E         133.704 [kcal/mol]      559.417 [kJ/mol]       0.21307080 [Eh]
  Correction E            135.481 [kcal/mol]      566.854 [kJ/mol]       0.21590335 [Eh]
  Total E, Electronic energy at  298.15 [K]                           -346.97312394 [Eh]

  Enthalpy, H_trans = E_trans + k_B * T
    Electronic H            0.000 [kcal/mol]        0.000 [kJ/mol]       0.00000000 [Eh]
    Translational H         1.481 [kcal/mol]        6.197 [kJ/mol]       0.00236046 [Eh]
    Rotational H            0.889 [kcal/mol]        3.718 [kJ/mol]       0.00141628 [Eh]
    Vibrational H         133.704 [kcal/mol]      559.417 [kJ/mol]       0.21307080 [Eh]
  Correction H            136.074 [kcal/mol]      569.333 [kJ/mol]       0.21684754 [Eh]
  Total H, Enthalpy at  298.15 [K]                                    -346.97217975 [Eh]

  Gibbs free energy, G = H - T * S
    Electronic G            0.000 [kcal/mol]        0.000 [kJ/mol]       0.00000000 [Eh]
    Translational G       -10.413 [kcal/mol]      -43.569 [kJ/mol]      -0.01659472 [Eh]
    Rotational G           -7.774 [kcal/mol]      -32.528 [kJ/mol]      -0.01238930 [Eh]
    Vibrational G         120.392 [kcal/mol]      503.721 [kJ/mol]       0.19185724 [Eh]
  Correction G            102.204 [kcal/mol]      427.624 [kJ/mol]       0.16287322 [Eh]
  Total G, Free enthalpy at  298.15 [K]                               -347.02615408 [Eh]

*** Psi4 exiting successfully. Buy a developer a beer!
