                               Psi4 1.2.1 release

  ==> Input File <==

--------------------------------------------------------------------------
memory 100 Gb

molecule conf_01 {
0 1
  C     0.862623618218     1.372316120295     0.026950179390
  H     1.129179384606     1.522932093792    -1.016386282541
  H     1.534686884329     1.974987481274     0.633169374442
  C     0.989408371139    -0.094761929754     0.396662903632
  H     0.694927344785    -0.213738507907     1.436133911924
  H     0.282089280894    -0.663116363564    -0.199693390147
  C     2.405338907816    -0.634234634398     0.188221301583
  H     2.695229467769    -0.501382535472    -0.851871513002
  H     3.108899709211    -0.051857337312     0.779781032869
  C     2.532125329063    -2.110561538725     0.561898669478
  H     3.544040141501    -2.469440975897     0.402901596873
  H     2.283016993915    -2.272567008013     1.606583881479
  H     1.864339228078    -2.723294046593    -0.036171500950
  O    -0.473655397429     1.773672957857     0.249720022362
  H    -0.573845579319     2.690917572874     0.035437977071
  C    -3.322022864152    -0.521394290245    -0.211354800701
  H    -3.977043783700     0.259124398613     0.171447926855
  H    -2.857878207091    -1.022682774232     0.635657842121
  H    -3.930640993905    -1.243400740178    -0.740290551732
  O    -2.378542398924    -0.022512035759    -1.110088984187
  H    -1.817162341607     0.599675537489    -0.660893518668
}
set globals {
  reference rhf
  basis 6-31G(d)
}
frequency('scf', dertype=1)
--------------------------------------------------------------------------

    Molecular point group: c1
  Charge       = 0
  Multiplicity = 1
  Basis Set: 6-31G(D)
    Blend: 6-31G(D)
  Basis Set: (6-31G(D) AUX)
    Blend: CC-PVDZ-JKFIT
  @DF-RHF Final Energy:  -347.18979776858492
    Total Energy =                       -347.1897977685849241
    Molecular point group: c1
  Basis Set: 6-31G(D)
    Blend: 6-31G(D)
  Basis Set: (6-31G(D) AUX)
    Blend: CC-PVDZ-JKFIT
  Basis Set: 6-31G(D)
    Blend: 6-31G(D)
  Basis Set: (6-31G(D) AUX)
    Blend: CC-PVDZ-JKFIT
  @DF-RHF Final Energy:  -347.18979704553448
    Total Energy =                       -347.1897970455344762
  Basis Set: 6-31G(D)
    Blend: 6-31G(D)
  Basis Set: (6-31G(D) AUX)
    Blend: CC-PVDZ-JKFIT
  Basis Set: 6-31G(D)
    Blend: 6-31G(D)
  @DF-RHF Final Energy:  -347.18979704331230
    Total Energy =                       -347.1897970433122964
  @DF-RHF Final Energy:  -347.18979702997802
    Total Energy =                       -347.1897970299780241
  @DF-RHF Final Energy:  -347.18979703117844
    Total Energy =                       -347.1897970311784434
  @DF-RHF Final Energy:  -347.18979678896204
    Total Energy =                       -347.1897967889620418
  @DF-RHF Final Energy:  -347.18979679119445
    Total Energy =                       -347.1897967911944534
  @DF-RHF Final Energy:  -347.18979667532074
    Total Energy =                       -347.1897966753207356
  @DF-RHF Final Energy:  -347.18979667441602
    Total Energy =                       -347.1897966744160158
  @DF-RHF Final Energy:  -347.18979687499859
    Total Energy =                       -347.1897968749985921
  @DF-RHF Final Energy:  -347.18979687517310
    Total Energy =                       -347.1897968751731014
  @DF-RHF Final Energy:  -347.18979366316432
    Total Energy =                       -347.1897936631643233
  @DF-RHF Final Energy:  -347.18979362361790
    Total Energy =                       -347.1897936236179021
  @DF-RHF Final Energy:  -347.18979550657554
    Total Energy =                       -347.1897955065755355
  @DF-RHF Final Energy:  -347.18979551510733
    Total Energy =                       -347.1897955151073347
  @DF-RHF Final Energy:  -347.18979580242006
    Total Energy =                       -347.1897958024200648
  @DF-RHF Final Energy:  -347.18979580793632
    Total Energy =                       -347.1897958079363207
  @DF-RHF Final Energy:  -347.18979588877704
    Total Energy =                       -347.1897958887770415
  @DF-RHF Final Energy:  -347.18979589251393
    Total Energy =                       -347.1897958925139278
  @DF-RHF Final Energy:  -347.18979705885408
    Total Energy =                       -347.1897970588540829
  @DF-RHF Final Energy:  -347.18979588949134
    Total Energy =                       -347.1897958894913359
  @DF-RHF Final Energy:  -347.18979515531009
    Total Energy =                       -347.1897951553100938
  @DF-RHF Final Energy:  -347.18979514368192
    Total Energy =                       -347.1897951436819199
  @DF-RHF Final Energy:  -347.18979514014001
    Total Energy =                       -347.1897951401400064
  @DF-RHF Final Energy:  -347.18979514969351
    Total Energy =                       -347.1897951496935093
  @DF-RHF Final Energy:  -347.18979594275839
    Total Energy =                       -347.1897959427583942
  @DF-RHF Final Energy:  -347.18979593970454
    Total Energy =                       -347.1897959397045383
  @DF-RHF Final Energy:  -347.18979619723029
    Total Energy =                       -347.1897961972302937
  @DF-RHF Final Energy:  -347.18979620034639
    Total Energy =                       -347.1897962003463931
  @DF-RHF Final Energy:  -347.18979566428106
    Total Energy =                       -347.1897956642810641
  @DF-RHF Final Energy:  -347.18979566003668
    Total Energy =                       -347.1897956600366797
  @DF-RHF Final Energy:  -347.18979586531174
    Total Energy =                       -347.1897958653117371
  @DF-RHF Final Energy:  -347.18979588121090
    Total Energy =                       -347.1897958812108982
  @DF-RHF Final Energy:  -347.18979480875265
    Total Energy =                       -347.1897948087526515
  @DF-RHF Final Energy:  -347.18979479333342
    Total Energy =                       -347.1897947933334194
  @DF-RHF Final Energy:  -347.18979654463004
    Total Energy =                       -347.1897965446300418
  @DF-RHF Final Energy:  -347.18979655431303
    Total Energy =                       -347.1897965543130340
  @DF-RHF Final Energy:  -347.18979006248776
    Total Energy =                       -347.1897900624877593
  Basis Set: (6-31G(D) AUX)
    Blend: CC-PVDZ-JKFIT
  Basis Set: 6-31G(D)
    Blend: 6-31G(D)
  Basis Set: (6-31G(D) AUX)
    Blend: CC-PVDZ-JKFIT
  @DF-RHF Final Energy:  -347.18978996126305
    Total Energy =                       -347.1897899612630454
  Basis Set: 6-31G(D)
    Blend: 6-31G(D)
  Basis Set: (6-31G(D) AUX)
    Blend: CC-PVDZ-JKFIT
    Molecular point group: c1
  Charge       = 0
  Multiplicity = 1
  Basis Set: 6-31G(D)
    Blend: 6-31G(D)
  Basis Set: (6-31G(D) AUX)
    Blend: CC-PVDZ-JKFIT

    Orbital Energies [Eh]
    ---------------------

    Doubly Occupied:

       1A    -20.576763     2A    -20.526207     3A    -11.279754
       4A    -11.248402     5A    -11.222900     6A    -11.217592
       7A    -11.212150     8A     -1.379624     9A     -1.334335
      10A     -1.076696    11A     -0.982491    12A     -0.906186
      13A     -0.863962    14A     -0.803102    15A     -0.710271
      16A     -0.679264    17A     -0.664169    18A     -0.611042
      19A     -0.602587    20A     -0.600082    21A     -0.574421
      22A     -0.569509    23A     -0.530180    24A     -0.521630
      25A     -0.480112    26A     -0.478270    27A     -0.474088
      28A     -0.469751    29A     -0.450657    30A     -0.418208

  @DF-RHF Final Energy:  -347.18979776837534

   => Energetics <=

    Nuclear Repulsion Energy =            318.7697874054331919
    One-Electron Energy =               -1104.9903612513201097
    Two-Electron Energy =                 439.0307760775116321
    Total Energy =                       -347.1897977683753425

  Dipole Moment: [D]
     X:     1.7746      Y:     1.7123      Z:     1.2725     Total:     2.7750

    Molecular point group: c1

    Geometry (in Angstrom), charge = 0, multiplicity = 1:

       Center              X                  Y                   Z               Mass
    ------------   -----------------  -----------------  -----------------  -----------------
         C            0.862623618218     1.372316120295     0.026950179390    12.000000000000
         H            1.129179384606     1.522932093792    -1.016386282541     1.007825032070
         H            1.534686884329     1.974987481274     0.633169374442     1.007825032070
         C            0.989408371139    -0.094761929754     0.396662903632    12.000000000000
         H            0.694927344785    -0.213738507907     1.436133911924     1.007825032070
         H            0.282089280894    -0.663116363564    -0.199693390147     1.007825032070
         C            2.405338907816    -0.634234634398     0.188221301583    12.000000000000
         H            2.695229467769    -0.501382535472    -0.851871513002     1.007825032070
         H            3.108899709211    -0.051857337312     0.779781032869     1.007825032070
         C            2.532125329063    -2.110561538725     0.561898669478    12.000000000000
         H            3.544040141501    -2.469440975897     0.402901596873     1.007825032070
         H            2.283016993915    -2.272567008013     1.606583881479     1.007825032070
         H            1.864339228078    -2.723294046593    -0.036171500950     1.007825032070
         O           -0.473655397429     1.773672957857     0.249720022362    15.994914619560
         H           -0.573845579319     2.690917572874     0.035437977071     1.007825032070
         C           -3.322022864152    -0.521394290245    -0.211354800701    12.000000000000
         H           -3.977043783700     0.259124398613     0.171447926855     1.007825032070
         H           -2.857878207091    -1.022682774232     0.635657842121     1.007825032070
         H           -3.930640993905    -1.243400740178    -0.740290551732     1.007825032070
         O           -2.378542398924    -0.022512035759    -1.110088984187    15.994914619560
         H           -1.817162341607     0.599675537489    -0.660893518668     1.007825032070

  Basis Set: 6-31G(D)
    Blend: 6-31G(D)
  Basis Set: (6-31G(D) AUX)
    Blend: CC-PVDZ-JKFIT

  -Total Gradient:
     Atom            X                  Y                   Z
    ------   -----------------  -----------------  -----------------
       1        0.000001139989    -0.000000128596    -0.000000099293
       2       -0.000000089436    -0.000000108750     0.000000186068
       3       -0.000000116301    -0.000000197729    -0.000000074109
       4       -0.000000254048    -0.000000177462     0.000000300025
       5        0.000000068207     0.000000182922    -0.000000042234
       6        0.000000260596     0.000000066653     0.000000076611
       7       -0.000000005435     0.000000255551    -0.000000487756
       8       -0.000000101752    -0.000000026011     0.000000047756
       9       -0.000000044618    -0.000000220841     0.000000029954
      10       -0.000000074601    -0.000000038741     0.000000173680
      11       -0.000000036708     0.000000100446     0.000000082548
      12       -0.000000080128     0.000000043914    -0.000000100226
      13        0.000000141158     0.000000046090    -0.000000110995
      14       -0.000000747950    -0.000000030891     0.000000209486
      15       -0.000000014162    -0.000000122635     0.000000150580
      16       -0.000000677601    -0.000000403141     0.000000538440
      17        0.000000087688    -0.000000162196    -0.000000035284
      18       -0.000000114847     0.000000079669    -0.000000130092
      19        0.000000021391     0.000000040384     0.000000087145
      20        0.000000816269    -0.000000262593     0.000000638223
      21       -0.000000177707     0.000001063954    -0.000001440527

  Vibration                       7                   8                   9
  Freq [cm^-1]                 26.5850             36.1441             50.0393
  Irrep                           A                   A                   A
  Reduced mass [u]              2.5126              2.0728              3.1229
  Force const [mDyne/A]         0.0010              0.0016              0.0046

  Vibration                       10                  11                  12
  Freq [cm^-1]                 84.6140             118.9788            121.7317
  Irrep                           A                   A                   A
  Reduced mass [u]              2.8042              2.2671              1.6404
  Force const [mDyne/A]         0.0118              0.0189              0.0143

  Vibration                       13                  14                  15
  Freq [cm^-1]                 130.0273            175.4392            213.9787
  Irrep                           A                   A                   A
  Reduced mass [u]              1.4529              3.4475              3.3024
  Force const [mDyne/A]         0.0145              0.0625              0.0891

  Vibration                       16                  17                  18
  Freq [cm^-1]                 266.4127            347.5758            420.8243
  Irrep                           A                   A                   A
  Reduced mass [u]              1.1317              1.1217              3.2817
  Force const [mDyne/A]         0.0473              0.0798              0.3424

  Vibration                       19                  20                  21
  Freq [cm^-1]                 471.6313            684.8399            801.8469
  Irrep                           A                   A                   A
  Reduced mass [u]              3.3169              1.0625              1.0718
  Force const [mDyne/A]         0.4347              0.2936              0.4060

  Vibration                       22                  23                  24
  Freq [cm^-1]                 882.3170            976.6459           1039.2506
  Irrep                           A                   A                   A
  Reduced mass [u]              1.1335              1.8590              1.1442
  Force const [mDyne/A]         0.5199              1.0447              0.7281

  Vibration                       25                  26                  27
  Freq [cm^-1]                1069.8612           1133.9118           1174.9393
  Irrep                           A                   A                   A
  Reduced mass [u]              3.1761              2.2910              4.1304
  Force const [mDyne/A]         2.1419              1.7355              3.3595

  Vibration                       28                  29                  30
  Freq [cm^-1]                1198.6412           1208.4179           1209.9012
  Irrep                           A                   A                   A
  Reduced mass [u]              5.6420              1.2368              1.5379
  Force const [mDyne/A]         4.7759              1.0641              1.3264

  Vibration                       31                  32                  33
  Freq [cm^-1]                1292.1586           1305.7520           1358.5092
  Irrep                           A                   A                   A
  Reduced mass [u]              1.2699              1.6446              1.2951
  Force const [mDyne/A]         1.2492              1.6521              1.4083

  Vibration                       34                  35                  36
  Freq [cm^-1]                1373.0179           1444.5661           1446.7842
  Irrep                           A                   A                   A
  Reduced mass [u]              1.2790              1.1609              1.2255
  Force const [mDyne/A]         1.4206              1.4273              1.5114

  Vibration                       37                  38                  39
  Freq [cm^-1]                1455.7253           1540.9123           1559.0575
  Irrep                           A                   A                   A
  Reduced mass [u]              1.1276              1.4316              1.2367
  Force const [mDyne/A]         1.4079              2.0027              1.7711

  Vibration                       40                  41                  42
  Freq [cm^-1]                1568.1467           1612.2094           1637.2448
  Irrep                           A                   A                   A
  Reduced mass [u]              1.3039              1.4685              1.0725
  Force const [mDyne/A]         1.8892              2.2488              1.6939

  Vibration                       43                  44                  45
  Freq [cm^-1]                1638.7767           1644.2467           1647.1822
  Irrep                           A                   A                   A
  Reduced mass [u]              1.1411              1.0416              1.0932
  Force const [mDyne/A]         1.8055              1.6592              1.7476

  Vibration                       46                  47                  48
  Freq [cm^-1]                1652.6690           1657.2927           1666.0447
  Irrep                           A                   A                   A
  Reduced mass [u]              1.0522              1.1024              1.0516
  Force const [mDyne/A]         1.6932              1.7840              1.7198

  Vibration                       49                  50                  51
  Freq [cm^-1]                1680.8546           3175.5616           3184.1054
  Irrep                           A                   A                   A
  Reduced mass [u]              1.0924              1.0371              1.0580
  Force const [mDyne/A]         1.8184              6.1619              6.3202

  Vibration                       52                  53                  54
  Freq [cm^-1]                3192.8750           3200.7147           3208.8065
  Irrep                           A                   A                   A
  Reduced mass [u]              1.0572              1.0402              1.0802
  Force const [mDyne/A]         6.3497              6.2787              6.5530

  Vibration                       55                  56                  57
  Freq [cm^-1]                3213.3555           3216.8178           3220.0378
  Irrep                           A                   A                   A
  Reduced mass [u]              1.0940              1.1055              1.0968
  Force const [mDyne/A]         6.6553              6.7400              6.7003

  Vibration                       58                  59                  60
  Freq [cm^-1]                3256.8039           3265.2818           3269.1210
  Irrep                           A                   A                   A
  Reduced mass [u]              1.1051              1.1030              1.1046
  Force const [mDyne/A]         6.9060              6.9288              6.9553

  Vibration                       61                  62                  63
  Freq [cm^-1]                3286.5063           4049.8719           4111.4020
  Irrep                           A                   A                   A
  Reduced mass [u]              1.0985              1.0672              1.0669
  Force const [mDyne/A]         6.9904             10.3128             10.6254

  ==> Thermochemistry Components <==

  Entropy, S
    Electronic S            0.000 [cal/(mol K)]        0.000 [J/(mol K)]       0.00000000 [mEh/K] (multiplicity = 1)
    Translational S        39.895 [cal/(mol K)]      166.919 [J/(mol K)]       0.06357599 [mEh/K] (mol. weight = 106.0994 [u], P = 101325.00 [Pa])
    Rotational S           29.429 [cal/(mol K)]      123.133 [J/(mol K)]       0.04689869 [mEh/K] (symmetry no. = 1)
    Vibrational S          39.445 [cal/(mol K)]      165.037 [J/(mol K)]       0.06285933 [mEh/K]
  Total S                 108.769 [cal/(mol K)]      455.088 [J/(mol K)]       0.17333400 [mEh/K]
  Correction S              0.000 [cal/(mol K)]        0.000 [J/(mol K)]       0.00000000 [mEh/K]

  Constant volume heat capacity, Cv
    Electronic Cv           0.000 [cal/(mol K)]        0.000 [J/(mol K)]       0.00000000 [mEh/K]
    Translational Cv        2.981 [cal/(mol K)]       12.472 [J/(mol K)]       0.00475022 [mEh/K]
    Rotational Cv           2.981 [cal/(mol K)]       12.472 [J/(mol K)]       0.00475022 [mEh/K]
    Vibrational Cv         28.979 [cal/(mol K)]      121.249 [J/(mol K)]       0.04618129 [mEh/K]
  Total Cv                 34.941 [cal/(mol K)]      146.192 [J/(mol K)]       0.05568173 [mEh/K]
  Correction Cv             0.000 [cal/(mol K)]        0.000 [J/(mol K)]       0.00000000 [mEh/K]

  Constant pressure heat capacity, Cp
    Electronic Cp           0.000 [cal/(mol K)]        0.000 [J/(mol K)]       0.00000000 [mEh/K]
    Translational Cp        4.968 [cal/(mol K)]       20.786 [J/(mol K)]       0.00791704 [mEh/K]
    Rotational Cp           2.981 [cal/(mol K)]       12.472 [J/(mol K)]       0.00475022 [mEh/K]
    Vibrational Cp         28.979 [cal/(mol K)]      121.249 [J/(mol K)]       0.04618129 [mEh/K]
  Total Cp                 36.928 [cal/(mol K)]      154.507 [J/(mol K)]       0.05884855 [mEh/K]
  Correction Cp             0.000 [cal/(mol K)]        0.000 [J/(mol K)]       0.00000000 [mEh/K]

  ==> Thermochemistry Energy Analysis <==

  Raw electronic energy, E0
  Total E0, Electronic energy at well bottom at 0 [K]                 -347.18979777 [Eh]

  Zero-point energy, ZPE_vib = Sum_i nu_i / 2
    Electronic ZPE          0.000 [kcal/mol]        0.000 [kJ/mol]       0.00000000 [Eh]
    Translational ZPE       0.000 [kcal/mol]        0.000 [kJ/mol]       0.00000000 [Eh]
    Rotational ZPE          0.000 [kcal/mol]        0.000 [kJ/mol]       0.00000000 [Eh]
    Vibrational ZPE       128.486 [kcal/mol]      537.584 [kJ/mol]       0.20475476 [Eh]       44938.468 [cm^-1]
  Correction ZPE          128.486 [kcal/mol]      537.584 [kJ/mol]       0.20475476 [Eh]       44938.468 [cm^-1]
  Total ZPE, Electronic energy at 0 [K]                               -346.98504301 [Eh]

  Thermal Energy, E (includes ZPE)
    Electronic E            0.000 [kcal/mol]        0.000 [kJ/mol]       0.00000000 [Eh]
    Translational E         0.889 [kcal/mol]        3.718 [kJ/mol]       0.00141628 [Eh]
    Rotational E            0.889 [kcal/mol]        3.718 [kJ/mol]       0.00141628 [Eh]
    Vibrational E         133.794 [kcal/mol]      559.796 [kJ/mol]       0.21321485 [Eh]
  Correction E            135.572 [kcal/mol]      567.232 [kJ/mol]       0.21604741 [Eh]
  Total E, Electronic energy at  298.15 [K]                           -346.97375036 [Eh]

  Enthalpy, H_trans = E_trans + k_B * T
    Electronic H            0.000 [kcal/mol]        0.000 [kJ/mol]       0.00000000 [Eh]
    Translational H         1.481 [kcal/mol]        6.197 [kJ/mol]       0.00236046 [Eh]
    Rotational H            0.889 [kcal/mol]        3.718 [kJ/mol]       0.00141628 [Eh]
    Vibrational H         133.794 [kcal/mol]      559.796 [kJ/mol]       0.21321485 [Eh]
  Correction H            136.164 [kcal/mol]      569.711 [kJ/mol]       0.21699159 [Eh]
  Total H, Enthalpy at  298.15 [K]                                    -346.97280618 [Eh]

  Gibbs free energy, G = H - T * S
    Electronic G            0.000 [kcal/mol]        0.000 [kJ/mol]       0.00000000 [Eh]
    Translational G       -10.413 [kcal/mol]      -43.569 [kJ/mol]      -0.01659472 [Eh]
    Rotational G           -7.886 [kcal/mol]      -32.994 [kJ/mol]      -0.01256657 [Eh]
    Vibrational G         122.034 [kcal/mol]      510.590 [kJ/mol]       0.19447334 [Eh]
  Correction G            103.735 [kcal/mol]      434.027 [kJ/mol]       0.16531206 [Eh]
  Total G, Free enthalpy at  298.15 [K]                               -347.02448571 [Eh]

*** Psi4 exiting successfully. Buy a developer a beer!
