                               Psi4 1.2.1 release

  ==> Input File <==

--------------------------------------------------------------------------
memory 100 Gb

molecule conf_01 {
0 1
  C     0.340728127337    -0.334748963608    -0.027658188083
  H     0.038130560824    -0.420306976059    -1.072100546837
  H     1.125493237095     0.417950492977     0.017789111372
  C     0.856649693196    -1.677374329773     0.466405915250
  H     1.179851246784    -1.564659766290     1.498310854852
  H     0.016092866055    -2.365307444621     0.479472454968
  C     1.988695089985    -2.273483635716    -0.376547494005
  H     2.183005626125    -3.282762459918    -0.023138835283
  H     1.658078230499    -2.374966995123    -1.408593662738
  C     3.297784862121    -1.481199816286    -0.338821860907
  H     4.077989592940    -1.998583526007    -0.888917288367
  H     3.190317604679    -0.495040715452    -0.778830420100
  H     3.644669301237    -1.350845317650     0.682650554742
  O    -0.742787300042     0.037523627406     0.775745827635
  H    -1.063190131125     0.889436894473     0.500658770949
  C    -3.243749703666     2.422940826618    -0.467188894733
  H    -3.651262650008     3.319729146715    -0.923300986054
  H    -3.866965587738     2.134540649871     0.373343228555
  H    -3.255598276943     1.625982993964    -1.196028968521
  O    -1.903977963404     2.608131446872    -0.081219027568
  H    -1.849937873220     3.291205725726     0.572465873991
}
set globals {
  reference rhf
  basis 6-31G(d)
}
frequency('scf', dertype=1)
--------------------------------------------------------------------------

    Molecular point group: c1
  Charge       = 0
  Multiplicity = 1
  Basis Set: 6-31G(D)
    Blend: 6-31G(D)
  Basis Set: (6-31G(D) AUX)
    Blend: CC-PVDZ-JKFIT
  @DF-RHF Final Energy:  -347.18735383057424
    Total Energy =                       -347.1873538305742386
    Molecular point group: c1
  Basis Set: 6-31G(D)
    Blend: 6-31G(D)
  Basis Set: (6-31G(D) AUX)
    Blend: CC-PVDZ-JKFIT
  Basis Set: 6-31G(D)
    Blend: 6-31G(D)
  Basis Set: (6-31G(D) AUX)
    Blend: CC-PVDZ-JKFIT
  @DF-RHF Final Energy:  -347.18735311544009
    Total Energy =                       -347.1873531154400894
  Basis Set: 6-31G(D)
    Blend: 6-31G(D)
  Basis Set: (6-31G(D) AUX)
    Blend: CC-PVDZ-JKFIT
  Basis Set: 6-31G(D)
    Blend: 6-31G(D)
  @DF-RHF Final Energy:  -347.18735308770260
    Total Energy =                       -347.1873530877026042
  @DF-RHF Final Energy:  -347.18735308605403
    Total Energy =                       -347.1873530860540313
  @DF-RHF Final Energy:  -347.18735309295647
    Total Energy =                       -347.1873530929564708
  @DF-RHF Final Energy:  -347.18735306345047
    Total Energy =                       -347.1873530634504732
  @DF-RHF Final Energy:  -347.18735307280127
    Total Energy =                       -347.1873530728012724
  @DF-RHF Final Energy:  -347.18735263128144
    Total Energy =                       -347.1873526312814420
  @DF-RHF Final Energy:  -347.18735261628734
    Total Energy =                       -347.1873526162873418
  @DF-RHF Final Energy:  -347.18735299060012
    Total Energy =                       -347.1873529906001181
  @DF-RHF Final Energy:  -347.18735301821971
    Total Energy =                       -347.1873530182197101
  @DF-RHF Final Energy:  -347.18734982323855
    Total Energy =                       -347.1873498232385487
  @DF-RHF Final Energy:  -347.18734976878852
    Total Energy =                       -347.1873497687885219
  @DF-RHF Final Energy:  -347.18735108543854
    Total Energy =                       -347.1873510854385358
  @DF-RHF Final Energy:  -347.18735110652040
    Total Energy =                       -347.1873511065203957
  @DF-RHF Final Energy:  -347.18735125184890
    Total Energy =                       -347.1873512518488951
  @DF-RHF Final Energy:  -347.18735126876254
    Total Energy =                       -347.1873512687625407
  @DF-RHF Final Energy:  -347.18735299134477
    Total Energy =                       -347.1873529913447669
  @DF-RHF Final Energy:  -347.18735299741746
    Total Energy =                       -347.1873529974174630
  @DF-RHF Final Energy:  -347.18735306181344
    Total Energy =                       -347.1873530618134396
  @DF-RHF Final Energy:  -347.18735163494318
    Total Energy =                       -347.1873516349431839
  @DF-RHF Final Energy:  -347.18735186511606
    Total Energy =                       -347.1873518651160566
  @DF-RHF Final Energy:  -347.18735185203559
    Total Energy =                       -347.1873518520355901
  @DF-RHF Final Energy:  -347.18735064843088
    Total Energy =                       -347.1873506484308791
  @DF-RHF Final Energy:  -347.18735063655959
    Total Energy =                       -347.1873506365595858
  @DF-RHF Final Energy:  -347.18735187066767
    Total Energy =                       -347.1873518706676691
  @DF-RHF Final Energy:  -347.18735181456935
    Total Energy =                       -347.1873518145693538
  @DF-RHF Final Energy:  -347.18735102641745
    Total Energy =                       -347.1873510264174456
  @DF-RHF Final Energy:  -347.18735101799740
    Total Energy =                       -347.1873510179974005
  @DF-RHF Final Energy:  -347.18735259330873
    Total Energy =                       -347.1873525933087308
  @DF-RHF Final Energy:  -347.18735257909799
    Total Energy =                       -347.1873525790979897
  @DF-RHF Final Energy:  -347.18735236557490
    Total Energy =                       -347.1873523655748954
  @DF-RHF Final Energy:  -347.18735233988673
    Total Energy =                       -347.1873523398867292
  @DF-RHF Final Energy:  -347.18735183872388
    Total Energy =                       -347.1873518387238846
  @DF-RHF Final Energy:  -347.18735182524381
    Total Energy =                       -347.1873518252438089
  @DF-RHF Final Energy:  -347.18735177643003
    Total Energy =                       -347.1873517764300345
  @DF-RHF Final Energy:  -347.18735166843669
    Total Energy =                       -347.1873516684366905
  @DF-RHF Final Energy:  -347.18734587333842
    Total Energy =                       -347.1873458733384155
  Basis Set: (6-31G(D) AUX)
    Blend: CC-PVDZ-JKFIT
  Basis Set: 6-31G(D)
    Blend: 6-31G(D)
  Basis Set: (6-31G(D) AUX)
    Blend: CC-PVDZ-JKFIT
  @DF-RHF Final Energy:  -347.18734577361522
    Total Energy =                       -347.1873457736152204
  Basis Set: 6-31G(D)
    Blend: 6-31G(D)
  Basis Set: (6-31G(D) AUX)
    Blend: CC-PVDZ-JKFIT
    Molecular point group: c1
  Charge       = 0
  Multiplicity = 1
  Basis Set: 6-31G(D)
    Blend: 6-31G(D)
  Basis Set: (6-31G(D) AUX)
    Blend: CC-PVDZ-JKFIT

    Orbital Energies [Eh]
    ---------------------

    Doubly Occupied:

       1A    -20.581691     2A    -20.522626     3A    -11.280903
       4A    -11.249476     5A    -11.209864     6A    -11.203681
       7A    -11.199279     8A     -1.383186     9A     -1.333581
      10A     -1.058601    11A     -0.958313    12A     -0.943814
      13A     -0.856208    14A     -0.772542    15A     -0.715901
      16A     -0.677825    17A     -0.638071    18A     -0.634113
      19A     -0.613714    20A     -0.605140    21A     -0.572349
      22A     -0.541842    23A     -0.525570    24A     -0.518705
      25A     -0.492368    26A     -0.468739    27A     -0.462787
      28A     -0.461737    29A     -0.438976    30A     -0.410725

  @DF-RHF Final Energy:  -347.18735383010306

   => Energetics <=

    Nuclear Repulsion Energy =            310.6412423024698910
    One-Electron Energy =               -1088.9925385425708555
    Two-Electron Energy =                 431.1639424099979010
    Total Energy =                       -347.1873538301030635

  Dipole Moment: [D]
     X:    -1.3975      Y:     2.4417      Z:    -0.6470     Total:     2.8868

    Molecular point group: c1

    Geometry (in Angstrom), charge = 0, multiplicity = 1:

       Center              X                  Y                   Z               Mass
    ------------   -----------------  -----------------  -----------------  -----------------
         C            0.340728127337    -0.334748963608    -0.027658188083    12.000000000000
         H            0.038130560824    -0.420306976059    -1.072100546837     1.007825032070
         H            1.125493237095     0.417950492977     0.017789111372     1.007825032070
         C            0.856649693196    -1.677374329773     0.466405915250    12.000000000000
         H            1.179851246784    -1.564659766290     1.498310854852     1.007825032070
         H            0.016092866055    -2.365307444621     0.479472454968     1.007825032070
         C            1.988695089985    -2.273483635716    -0.376547494005    12.000000000000
         H            2.183005626125    -3.282762459918    -0.023138835283     1.007825032070
         H            1.658078230499    -2.374966995123    -1.408593662738     1.007825032070
         C            3.297784862121    -1.481199816286    -0.338821860907    12.000000000000
         H            4.077989592940    -1.998583526007    -0.888917288367     1.007825032070
         H            3.190317604679    -0.495040715452    -0.778830420100     1.007825032070
         H            3.644669301237    -1.350845317650     0.682650554742     1.007825032070
         O           -0.742787300042     0.037523627406     0.775745827635    15.994914619560
         H           -1.063190131125     0.889436894473     0.500658770949     1.007825032070
         C           -3.243749703666     2.422940826618    -0.467188894733    12.000000000000
         H           -3.651262650008     3.319729146715    -0.923300986054     1.007825032070
         H           -3.866965587738     2.134540649871     0.373343228555     1.007825032070
         H           -3.255598276943     1.625982993964    -1.196028968521     1.007825032070
         O           -1.903977963404     2.608131446872    -0.081219027568    15.994914619560
         H           -1.849937873220     3.291205725726     0.572465873991     1.007825032070

  Basis Set: 6-31G(D)
    Blend: 6-31G(D)
  Basis Set: (6-31G(D) AUX)
    Blend: CC-PVDZ-JKFIT

  -Total Gradient:
     Atom            X                  Y                   Z
    ------   -----------------  -----------------  -----------------
       1        0.000009002086    -0.000002110364    -0.000002684085
       2        0.000001554145    -0.000002559116     0.000001699229
       3       -0.000001047149    -0.000000587500    -0.000000679927
       4       -0.000001629404    -0.000001510278     0.000001277306
       5       -0.000000331046     0.000000741906    -0.000001137968
       6        0.000001350008    -0.000000055528     0.000000713502
       7        0.000000010429    -0.000001985287     0.000001261598
       8       -0.000000469995    -0.000000038750    -0.000000838523
       9        0.000001821176     0.000000414008     0.000000500999
      10        0.000000639252     0.000001343771    -0.000002276124
      11       -0.000000487571    -0.000000540156    -0.000000254231
      12        0.000001795893    -0.000000433348     0.000000401118
      13       -0.000001984460    -0.000000747071    -0.000000310928
      14       -0.000002937352     0.000006443451     0.000004262489
      15       -0.000005900026    -0.000003322539    -0.000009474793
      16       -0.000009535309     0.000004897492     0.000006335273
      17        0.000001977837    -0.000000277791     0.000000443862
      18       -0.000001195252     0.000000515629    -0.000001679413
      19        0.000006451265    -0.000000637414     0.000002279889
      20        0.000011490458    -0.000003250941     0.000002955730
      21       -0.000010574986     0.000003699831    -0.000002795001

  Vibration                       7                   8                   9
  Freq [cm^-1]                 16.5265             18.3720             27.8485
  Irrep                           A                   A                   A
  Reduced mass [u]              2.7606              2.7951              1.5537
  Force const [mDyne/A]         0.0004              0.0006              0.0007

  Vibration                       10                  11                  12
  Freq [cm^-1]                 54.0481             84.3414             97.5501
  Irrep                           A                   A                   A
  Reduced mass [u]              3.6323              1.6858              2.1118
  Force const [mDyne/A]         0.0063              0.0071              0.0118

  Vibration                       13                  14                  15
  Freq [cm^-1]                 137.5240            147.9686            239.4421
  Irrep                           A                   A                   A
  Reduced mass [u]              2.1814              4.3923              1.4697
  Force const [mDyne/A]         0.0243              0.0567              0.0496

  Vibration                       16                  17                  18
  Freq [cm^-1]                 315.0445            369.4386            388.1809
  Irrep                           A                   A                   A
  Reduced mass [u]              1.6537              1.5111              1.7652
  Force const [mDyne/A]         0.0967              0.1215              0.1567

  Vibration                       19                  20                  21
  Freq [cm^-1]                 527.0290            658.7559            813.4591
  Irrep                           A                   A                   A
  Reduced mass [u]              2.9211              1.0428              1.1941
  Force const [mDyne/A]         0.4780              0.2666              0.4656

  Vibration                       22                  23                  24
  Freq [cm^-1]                 866.4506            941.1654           1037.5793
  Irrep                           A                   A                   A
  Reduced mass [u]              1.2451              2.1225              1.6307
  Force const [mDyne/A]         0.5507              1.1077              1.0344

  Vibration                       25                  26                  27
  Freq [cm^-1]                1059.9628           1150.9463           1167.6440
  Irrep                           A                   A                   A
  Reduced mass [u]              1.3594              2.5118              1.2278
  Force const [mDyne/A]         0.8998              1.9604              0.9863

  Vibration                       28                  29                  30
  Freq [cm^-1]                1172.0916           1193.7669           1225.0366
  Irrep                           A                   A                   A
  Reduced mass [u]              3.7765              2.3050              2.2362
  Force const [mDyne/A]         3.0568              1.9354              1.9772

  Vibration                       31                  32                  33
  Freq [cm^-1]                1289.6384           1290.9902           1363.7322
  Irrep                           A                   A                   A
  Reduced mass [u]              1.7756              1.2759              1.2404
  Force const [mDyne/A]         1.7399              1.2529              1.3592

  Vibration                       34                  35                  36
  Freq [cm^-1]                1391.6695           1439.0166           1449.0565
  Irrep                           A                   A                   A
  Reduced mass [u]              1.2380              1.1347              1.1133
  Force const [mDyne/A]         1.4127              1.3844              1.3773

  Vibration                       37                  38                  39
  Freq [cm^-1]                1504.0810           1505.5692           1522.0006
  Irrep                           A                   A                   A
  Reduced mass [u]              1.3056              1.3116              1.4910
  Force const [mDyne/A]         1.7402              1.7517              2.0350

  Vibration                       40                  41                  42
  Freq [cm^-1]                1568.3993           1625.4601           1635.8666
  Irrep                           A                   A                   A
  Reduced mass [u]              1.2801              1.3144              1.1514
  Force const [mDyne/A]         1.8553              2.0461              1.8153

  Vibration                       43                  44                  45
  Freq [cm^-1]                1636.1804           1642.0664           1650.1765
  Irrep                           A                   A                   A
  Reduced mass [u]              1.0721              1.1526              1.0496
  Force const [mDyne/A]         1.6911              1.8310              1.6839

  Vibration                       46                  47                  48
  Freq [cm^-1]                1650.3803           1655.3561           1661.3785
  Irrep                           A                   A                   A
  Reduced mass [u]              1.0586              1.0951              1.0485
  Force const [mDyne/A]         1.6989              1.7680              1.7051

  Vibration                       49                  50                  51
  Freq [cm^-1]                1685.7043           3156.9840           3188.7294
  Irrep                           A                   A                   A
  Reduced mass [u]              1.0928              1.0657              1.0625
  Force const [mDyne/A]         1.8295              6.2582              6.3655

  Vibration                       52                  53                  54
  Freq [cm^-1]                3189.2927           3200.3548           3203.3069
  Irrep                           A                   A                   A
  Reduced mass [u]              1.0914              1.0473              1.0678
  Force const [mDyne/A]         6.5410              6.3199              6.4557

  Vibration                       55                  56                  57
  Freq [cm^-1]                3205.0792           3223.5326           3246.4272
  Irrep                           A                   A                   A
  Reduced mass [u]              1.0351              1.0909              1.1049
  Force const [mDyne/A]         6.2647              6.6788              6.8607

  Vibration                       58                  59                  60
  Freq [cm^-1]                3258.5764           3261.3527           3267.1693
  Irrep                           A                   A                   A
  Reduced mass [u]              1.1026              1.1074              1.1023
  Force const [mDyne/A]         6.8978              6.9401              6.9327

  Vibration                       61                  62                  63
  Freq [cm^-1]                3322.5661           4050.9575           4114.9416
  Irrep                           A                   A                   A
  Reduced mass [u]              1.1016              1.0670              1.0670
  Force const [mDyne/A]         7.1651             10.3165             10.6444

  ==> Thermochemistry Components <==

  Entropy, S
    Electronic S            0.000 [cal/(mol K)]        0.000 [J/(mol K)]       0.00000000 [mEh/K] (multiplicity = 1)
    Translational S        39.895 [cal/(mol K)]      166.919 [J/(mol K)]       0.06357599 [mEh/K] (mol. weight = 106.0994 [u], P = 101325.00 [Pa])
    Rotational S           29.282 [cal/(mol K)]      122.516 [J/(mol K)]       0.04666388 [mEh/K] (symmetry no. = 1)
    Vibrational S          44.545 [cal/(mol K)]      186.375 [J/(mol K)]       0.07098660 [mEh/K]
  Total S                 113.721 [cal/(mol K)]      475.810 [J/(mol K)]       0.18122646 [mEh/K]
  Correction S              0.000 [cal/(mol K)]        0.000 [J/(mol K)]       0.00000000 [mEh/K]

  Constant volume heat capacity, Cv
    Electronic Cv           0.000 [cal/(mol K)]        0.000 [J/(mol K)]       0.00000000 [mEh/K]
    Translational Cv        2.981 [cal/(mol K)]       12.472 [J/(mol K)]       0.00475022 [mEh/K]
    Rotational Cv           2.981 [cal/(mol K)]       12.472 [J/(mol K)]       0.00475022 [mEh/K]
    Vibrational Cv         28.974 [cal/(mol K)]      121.227 [J/(mol K)]       0.04617302 [mEh/K]
  Total Cv                 34.936 [cal/(mol K)]      146.171 [J/(mol K)]       0.05567346 [mEh/K]
  Correction Cv             0.000 [cal/(mol K)]        0.000 [J/(mol K)]       0.00000000 [mEh/K]

  Constant pressure heat capacity, Cp
    Electronic Cp           0.000 [cal/(mol K)]        0.000 [J/(mol K)]       0.00000000 [mEh/K]
    Translational Cp        4.968 [cal/(mol K)]       20.786 [J/(mol K)]       0.00791704 [mEh/K]
    Rotational Cp           2.981 [cal/(mol K)]       12.472 [J/(mol K)]       0.00475022 [mEh/K]
    Vibrational Cp         28.974 [cal/(mol K)]      121.227 [J/(mol K)]       0.04617302 [mEh/K]
  Total Cp                 36.923 [cal/(mol K)]      154.485 [J/(mol K)]       0.05884028 [mEh/K]
  Correction Cp             0.000 [cal/(mol K)]        0.000 [J/(mol K)]       0.00000000 [mEh/K]

  ==> Thermochemistry Energy Analysis <==

  Raw electronic energy, E0
  Total E0, Electronic energy at well bottom at 0 [K]                 -347.18735383 [Eh]

  Zero-point energy, ZPE_vib = Sum_i nu_i / 2
    Electronic ZPE          0.000 [kcal/mol]        0.000 [kJ/mol]       0.00000000 [Eh]
    Translational ZPE       0.000 [kcal/mol]        0.000 [kJ/mol]       0.00000000 [Eh]
    Rotational ZPE          0.000 [kcal/mol]        0.000 [kJ/mol]       0.00000000 [Eh]
    Vibrational ZPE       128.327 [kcal/mol]      536.921 [kJ/mol]       0.20450233 [Eh]       44883.067 [cm^-1]
  Correction ZPE          128.327 [kcal/mol]      536.921 [kJ/mol]       0.20450233 [Eh]       44883.067 [cm^-1]
  Total ZPE, Electronic energy at 0 [K]                               -346.98285150 [Eh]

  Thermal Energy, E (includes ZPE)
    Electronic E            0.000 [kcal/mol]        0.000 [kJ/mol]       0.00000000 [Eh]
    Translational E         0.889 [kcal/mol]        3.718 [kJ/mol]       0.00141628 [Eh]
    Rotational E            0.889 [kcal/mol]        3.718 [kJ/mol]       0.00141628 [Eh]
    Vibrational E         133.763 [kcal/mol]      559.663 [kJ/mol]       0.21316430 [Eh]
  Correction E            135.540 [kcal/mol]      567.100 [kJ/mol]       0.21599685 [Eh]
  Total E, Electronic energy at  298.15 [K]                           -346.97135698 [Eh]

  Enthalpy, H_trans = E_trans + k_B * T
    Electronic H            0.000 [kcal/mol]        0.000 [kJ/mol]       0.00000000 [Eh]
    Translational H         1.481 [kcal/mol]        6.197 [kJ/mol]       0.00236046 [Eh]
    Rotational H            0.889 [kcal/mol]        3.718 [kJ/mol]       0.00141628 [Eh]
    Vibrational H         133.763 [kcal/mol]      559.663 [kJ/mol]       0.21316430 [Eh]
  Correction H            136.133 [kcal/mol]      569.579 [kJ/mol]       0.21694104 [Eh]
  Total H, Enthalpy at  298.15 [K]                                    -346.97041279 [Eh]

  Gibbs free energy, G = H - T * S
    Electronic G            0.000 [kcal/mol]        0.000 [kJ/mol]       0.00000000 [Eh]
    Translational G       -10.413 [kcal/mol]      -43.569 [kJ/mol]      -0.01659472 [Eh]
    Rotational G           -7.842 [kcal/mol]      -32.810 [kJ/mol]      -0.01249656 [Eh]
    Vibrational G         120.482 [kcal/mol]      504.095 [kJ/mol]       0.19199964 [Eh]
  Correction G            102.227 [kcal/mol]      427.716 [kJ/mol]       0.16290837 [Eh]
  Total G, Free enthalpy at  298.15 [K]                               -347.02444546 [Eh]

*** Psi4 exiting successfully. Buy a developer a beer!
