                               Psi4 1.2.1 release

  ==> Input File <==

--------------------------------------------------------------------------
memory 100 Gb

molecule conf_01 {
0 1
 C          4.7127318838   1.2989224917  -0.2119501403
 H          5.1464689503   1.1463074316  -1.2005381822
 H          3.8685376608   1.9777334089  -0.3353190061
 C          4.2282508521  -0.0277882547   0.3477811885
 H          3.8181327993   0.1478530164   1.3389986391
 H          5.0885308346  -0.6792299036   0.4787671102
 C          3.1847644175  -0.7088012672  -0.5384873939
 H          3.6007584044  -0.8724085304  -1.5307345408
 H          2.3317098529  -0.0462312683  -0.6713019527
 C          2.7023657515  -2.0424531847   0.0312590216
 H          1.9632564337  -2.5038284041  -0.6166221571
 H          2.2487017181  -1.9087051176   1.0091428173
 H          3.5267879819  -2.7407899593   0.1436345108
 O          5.6576621453   1.8351471070   0.6686251761
 H          5.9717274807   2.6659350563   0.3290785566
 C          8.1984574795   4.1932323012  -0.5303612108
 H          8.6276585282   5.0404759004  -1.0560460417
 H          8.7035161193   4.0706005883   0.4225293653
 H          8.3536104852   3.3024848642  -1.1211146882
 O          6.8095267979   4.3421601386  -0.3668040537
 H          6.6288434230   5.1063835852   0.1624629821
}
set globals {
  reference rhf
  g_convergence gau_tight
  basis 6-31G(d)
}
optimize('scf')
--------------------------------------------------------------------------

    Molecular point group: c1
  Charge       = 0
  Multiplicity = 1
  Basis Set: 6-31G(D)
    Blend: 6-31G(D)
  Basis Set: (6-31G(D) AUX)
    Blend: CC-PVDZ-JKFIT
  @DF-RHF Final Energy:  -347.18902727634634
    Total Energy =                       -347.1890272763463372
    Molecular point group: c1
  Basis Set: 6-31G(D)
    Blend: 6-31G(D)
  Basis Set: (6-31G(D) AUX)
    Blend: CC-PVDZ-JKFIT
  Basis Set: 6-31G(D)
    Blend: 6-31G(D)
  Basis Set: (6-31G(D) AUX)
    Blend: CC-PVDZ-JKFIT
  @DF-RHF Final Energy:  -347.18902729179956
    Total Energy =                       -347.1890272917995617
  Basis Set: 6-31G(D)
    Blend: 6-31G(D)
  Basis Set: (6-31G(D) AUX)
    Blend: CC-PVDZ-JKFIT
  Charge       = 0
  Multiplicity = 1
  Basis Set: 6-31G(D)
    Blend: 6-31G(D)
  Basis Set: (6-31G(D) AUX)
    Blend: CC-PVDZ-JKFIT

    Orbital Energies [Eh]
    ---------------------

    Doubly Occupied:

       1A    -20.581709     2A    -20.522782     3A    -11.280889
       4A    -11.249902     5A    -11.209661     6A    -11.203223
       7A    -11.199167     8A     -1.383209     9A     -1.333866
      10A     -1.059444    11A     -0.962239    12A     -0.943821
      13A     -0.842390    14A     -0.784155    15A     -0.715891
      16A     -0.675041    17A     -0.645859    18A     -0.636273
      19A     -0.612997    20A     -0.590685    21A     -0.579505
      22A     -0.548618    23A     -0.518809    24A     -0.510766
      25A     -0.495586    26A     -0.468976    27A     -0.464182
      28A     -0.460322    29A     -0.442663    30A     -0.411418

  @DF-RHF Final Energy:  -347.18902729421148

   => Energetics <=

    Nuclear Repulsion Energy =            307.1659799717430701
    One-Electron Energy =               -1082.0419169885567499
    Two-Electron Energy =                 427.6869097226021381
    Total Energy =                       -347.1890272942114848

  Dipole Moment: [D]
     X:     1.3360      Y:     2.5159      Z:    -0.8101     Total:     2.9615

    Molecular point group: c1
  Basis Set: 6-31G(D)
    Blend: 6-31G(D)
  Basis Set: (6-31G(D) AUX)
    Blend: CC-PVDZ-JKFIT

  -Total Gradient:
     Atom            X                  Y                   Z
    ------   -----------------  -----------------  -----------------
       1        0.000000037559    -0.000000191045     0.000000230989
       2       -0.000000050769     0.000000321148     0.000000524702
       3        0.000000683701    -0.000000189789     0.000000105255
       4       -0.000000109328    -0.000001265556     0.000000964389
       5       -0.000000219451    -0.000000145299    -0.000000597866
       6       -0.000000502620     0.000000072067    -0.000000406338
       7        0.000000998405     0.000001521309     0.000000066678
       8       -0.000000118056    -0.000000322861     0.000000598770
       9        0.000000278056    -0.000000544301     0.000000365697
      10        0.000000298118     0.000000239384     0.000000248183
      11        0.000000287854     0.000000137333     0.000000313631
      12        0.000000129608     0.000000025694    -0.000000591841
      13       -0.000000420702     0.000000395583    -0.000000233682
      14       -0.000000221683     0.000000851059    -0.000003961140
      15       -0.000001611108    -0.000002212195     0.000003251533
      16       -0.000002281040     0.000000773085     0.000001625028
      17        0.000000560619    -0.000000524437     0.000000169592
      18        0.000000291822    -0.000000110186    -0.000000614962
      19       -0.000001005466     0.000000327432     0.000000067419
      20        0.000002390658     0.000002024524    -0.000000895785
      21        0.000000583823    -0.000001182951    -0.000001230251

  **** Optimization is complete! (in 3 steps) ****
    Final optimized geometry and variables:
    Molecular point group: c1

    Geometry (in Angstrom), charge = 0, multiplicity = 1:

    C           -0.434924836942    -0.078958077650    -0.130434828770
    H           -0.001310947147    -0.231601093363    -1.119038504346
    H           -1.279113873114     0.599837972156    -0.253647215479
    C           -0.919313365271    -1.405640460436     0.429398085190
    H           -1.329347309076    -1.229974524736     1.420625720882
    H           -0.059042113465    -2.057095614610     0.560219950236
    C           -1.962906610216    -2.086571901225    -0.456780132762
    H           -1.547022906890    -2.250223749406    -1.449051374379
    H           -2.815970665889    -1.424007224422    -0.589449513541
    C           -2.445268515410    -3.420211380921     0.113013301274
    H           -3.184459950023    -3.881538279235    -0.534796857894
    H           -2.898821578897    -3.286443529630     1.090934738351
    H           -1.620851462865    -4.118558912392     0.225262037336
    O            0.510183969758     0.457301832786     0.750043184907
    H            0.824236423551     1.288106753352     0.410550450113
    C            3.050974371662     2.815546621751    -0.448554701270
    H            3.480110008589     3.662787176179    -0.974254317128
    H            3.555915434338     2.693068727314     0.504391415907
    H            3.206291763876     1.924774568417    -1.039204473185
    O            1.661930295042     2.964300195611    -0.285175256948
    H            1.480996667642     3.728514863962     0.243999056130

*** Psi4 exiting successfully. Buy a developer a beer!
