                               Psi4 1.2.1 release

  ==> Input File <==

--------------------------------------------------------------------------
memory 100 Gb

molecule conf_01 {
0 1
 C          -4.2956319773   1.3929946983  -0.3845364795
 H          -4.0289973531   1.5436056625  -1.4278843286
 H          -3.6233789955   1.9955051766   0.2216836509
 C          -4.1691655340  -0.0741402363  -0.0148714403
 H          -4.4638359266  -0.1930978504   1.0245669142
 H          -4.8766038986  -0.6423242438  -0.6112889688
 C          -2.7533526719  -0.6140163570  -0.2231595344
 H          -2.4632796483  -0.4811338625  -1.2632109580
 H          -2.0496997763  -0.0318200332   0.3684921157
 C          -2.6269938368  -2.0904029762   0.1504445320
 H          -1.6151615105  -2.4495731017  -0.0084644197
 H          -2.8762637062  -2.2524215231   1.1950987678
 H          -3.2948977852  -2.7029364728  -0.4477141935
 O          -5.6317330730   1.7946351834  -0.1617631612
 H          -5.7316536864   2.7119194778  -0.3760417082
 C          -8.4791339855  -0.5017195469  -0.6226118714
 H          -9.1344609402   0.2782127750  -0.2390761820
 H          -8.0141254555  -1.0030471866   0.2239327798
 H          -9.0876086608  -1.2239321560  -1.1514553637
 O          -7.5365874962  -0.0018531624  -1.5216704969
 H          -6.9754340820   0.6205457351  -1.0724696543
}
set globals {
  reference rhf
  g_convergence gau_tight
  basis 6-31G(d)
}
optimize('scf')
--------------------------------------------------------------------------

    Molecular point group: c1
  Charge       = 0
  Multiplicity = 1
  Basis Set: 6-31G(D)
    Blend: 6-31G(D)
  Basis Set: (6-31G(D) AUX)
    Blend: CC-PVDZ-JKFIT
  @DF-RHF Final Energy:  -347.18979774715740
    Total Energy =                       -347.1897977471573995
    Molecular point group: c1
  Basis Set: 6-31G(D)
    Blend: 6-31G(D)
  Basis Set: (6-31G(D) AUX)
    Blend: CC-PVDZ-JKFIT
  Basis Set: 6-31G(D)
    Blend: 6-31G(D)
  Basis Set: (6-31G(D) AUX)
    Blend: CC-PVDZ-JKFIT
  @DF-RHF Final Energy:  -347.18979776441836
    Total Energy =                       -347.1897977644183584
  Basis Set: 6-31G(D)
    Blend: 6-31G(D)
  Basis Set: (6-31G(D) AUX)
    Blend: CC-PVDZ-JKFIT
  Basis Set: 6-31G(D)
    Blend: 6-31G(D)
  @DF-RHF Final Energy:  -347.18979776654959
    Total Energy =                       -347.1897977665495887
  @DF-RHF Final Energy:  -347.18979776677367
    Total Energy =                       -347.1897977667736654
  @DF-RHF Final Energy:  -347.18979776654419
    Total Energy =                       -347.1897977665441886
  @DF-RHF Final Energy:  -347.18979776553971
    Total Energy =                       -347.1897977655397085
  @DF-RHF Final Energy:  -347.18979776547349
    Total Energy =                       -347.1897977654734859
  @DF-RHF Final Energy:  -347.18979776633341
    Total Energy =                       -347.1897977663334132
  @DF-RHF Final Energy:  -347.18979776694567
    Total Energy =                       -347.1897977669456736
  @DF-RHF Final Energy:  -347.18979776723324
    Total Energy =                       -347.1897977672332445
  @DF-RHF Final Energy:  -347.18979776796920
    Total Energy =                       -347.1897977679691962
  @DF-RHF Final Energy:  -347.18979776770180
    Total Energy =                       -347.1897977677018048
  @DF-RHF Final Energy:  -347.18979776785869
    Total Energy =                       -347.1897977678586926
  @DF-RHF Final Energy:  -347.18979776779418
    Total Energy =                       -347.1897977677941753
  @DF-RHF Final Energy:  -347.18979776804372
    Total Energy =                       -347.1897977680437180
  @DF-RHF Final Energy:  -347.18979776802826
    Total Energy =                       -347.1897977680282565
  @DF-RHF Final Energy:  -347.18979776818469
    Total Energy =                       -347.1897977681846896
  @DF-RHF Final Energy:  -347.18979776818230
    Total Energy =                       -347.1897977681823022
  @DF-RHF Final Energy:  -347.18979776836096
    Total Energy =                       -347.1897977683609611
  @DF-RHF Final Energy:  -347.18979776813819
    Total Energy =                       -347.1897977681381917
  @DF-RHF Final Energy:  -347.18979776853234
    Total Energy =                       -347.1897977685323440
  @DF-RHF Final Energy:  -347.18979776803582
    Total Energy =                       -347.1897977680358167
  @DF-RHF Final Energy:  -347.18979776800330
    Total Energy =                       -347.1897977680033023
  @DF-RHF Final Energy:  -347.18979776833999
    Total Energy =                       -347.1897977683399859
  @DF-RHF Final Energy:  -347.18979776799819
    Total Energy =                       -347.1897977679981864
  @DF-RHF Final Energy:  -347.18979776823130
    Total Energy =                       -347.1897977682313012
  @DF-RHF Final Energy:  -347.18979776839569
    Total Energy =                       -347.1897977683956924
  @DF-RHF Final Energy:  -347.18979776835130
    Total Energy =                       -347.1897977683512977
  @DF-RHF Final Energy:  -347.18979776865046
    Total Energy =                       -347.1897977686504646
  @DF-RHF Final Energy:  -347.18979776846675
    Total Energy =                       -347.1897977684667467
  @DF-RHF Final Energy:  -347.18979776878899
    Total Energy =                       -347.1897977687889920
  @DF-RHF Final Energy:  -347.18979776852956
    Total Energy =                       -347.1897977685295587
  @DF-RHF Final Energy:  -347.18979776855019
    Total Energy =                       -347.1897977685501928
  @DF-RHF Final Energy:  -347.18979776862813
    Total Energy =                       -347.1897977686281251
  Basis Set: (6-31G(D) AUX)
    Blend: CC-PVDZ-JKFIT
  Basis Set: 6-31G(D)
    Blend: 6-31G(D)
  Basis Set: (6-31G(D) AUX)
    Blend: CC-PVDZ-JKFIT
  @DF-RHF Final Energy:  -347.18979776887761
    Total Energy =                       -347.1897977688776109
  Basis Set: 6-31G(D)
    Blend: 6-31G(D)
  Basis Set: (6-31G(D) AUX)
    Blend: CC-PVDZ-JKFIT
  Charge       = 0
  Multiplicity = 1
  Basis Set: 6-31G(D)
    Blend: 6-31G(D)
  Basis Set: (6-31G(D) AUX)
    Blend: CC-PVDZ-JKFIT

    Orbital Energies [Eh]
    ---------------------

    Doubly Occupied:

       1A    -20.576763     2A    -20.526207     3A    -11.279754
       4A    -11.248402     5A    -11.222900     6A    -11.217592
       7A    -11.212150     8A     -1.379624     9A     -1.334335
      10A     -1.076696    11A     -0.982491    12A     -0.906186
      13A     -0.863962    14A     -0.803102    15A     -0.710271
      16A     -0.679264    17A     -0.664169    18A     -0.611042
      19A     -0.602587    20A     -0.600082    21A     -0.574421
      22A     -0.569509    23A     -0.530180    24A     -0.521630
      25A     -0.480112    26A     -0.478270    27A     -0.474088
      28A     -0.469751    29A     -0.450657    30A     -0.418208

  @DF-RHF Final Energy:  -347.18979776823898

   => Energetics <=

    Nuclear Repulsion Energy =            318.7697874054201748
    One-Electron Energy =               -1104.9903613107235287
    Two-Electron Energy =                 439.0307761370643789
    Total Energy =                       -347.1897977682389751

  Dipole Moment: [D]
     X:     1.7746      Y:     1.7123      Z:     1.2725     Total:     2.7750

    Molecular point group: c1
  Basis Set: 6-31G(D)
    Blend: 6-31G(D)
  Basis Set: (6-31G(D) AUX)
    Blend: CC-PVDZ-JKFIT

  -Total Gradient:
     Atom            X                  Y                   Z
    ------   -----------------  -----------------  -----------------
       1        0.000001150365    -0.000000135913    -0.000000100197
       2       -0.000000090700    -0.000000108142     0.000000193775
       3       -0.000000118270    -0.000000195326    -0.000000075833
       4       -0.000000260445    -0.000000183195     0.000000306509
       5        0.000000067228     0.000000183657    -0.000000050993
       6        0.000000260436     0.000000071544     0.000000079369
       7        0.000000003950     0.000000256325    -0.000000497347
       8       -0.000000104169    -0.000000026354     0.000000059302
       9       -0.000000048808    -0.000000223234     0.000000025553
      10       -0.000000075393    -0.000000042008     0.000000173849
      11       -0.000000046086     0.000000101899     0.000000083986
      12       -0.000000076898     0.000000043718    -0.000000108491
      13        0.000000147784     0.000000050644    -0.000000102902
      14       -0.000000747657    -0.000000013095     0.000000221769
      15       -0.000000017227    -0.000000137118     0.000000133366
      16       -0.000000670838    -0.000000402436     0.000000534170
      17        0.000000087297    -0.000000163926    -0.000000035032
      18       -0.000000117443     0.000000080013    -0.000000131478
      19        0.000000022756     0.000000042804     0.000000088268
      20        0.000000823658    -0.000000264580     0.000000649355
      21       -0.000000189536     0.000001064723    -0.000001446994

  **** Optimization is complete! (in 36 steps) ****
    Final optimized geometry and variables:
    Molecular point group: c1

    Geometry (in Angstrom), charge = 0, multiplicity = 1:

    C            0.862623618218     1.372316120295     0.026950179390
    H            1.129179384606     1.522932093792    -1.016386282541
    H            1.534686884329     1.974987481274     0.633169374442
    C            0.989408371139    -0.094761929754     0.396662903632
    H            0.694927344785    -0.213738507907     1.436133911924
    H            0.282089280894    -0.663116363564    -0.199693390147
    C            2.405338907816    -0.634234634398     0.188221301583
    H            2.695229467769    -0.501382535472    -0.851871513002
    H            3.108899709211    -0.051857337312     0.779781032869
    C            2.532125329063    -2.110561538725     0.561898669478
    H            3.544040141501    -2.469440975897     0.402901596873
    H            2.283016993915    -2.272567008013     1.606583881479
    H            1.864339228078    -2.723294046593    -0.036171500950
    O           -0.473655397429     1.773672957857     0.249720022362
    H           -0.573845579319     2.690917572874     0.035437977071
    C           -3.322022864152    -0.521394290245    -0.211354800701
    H           -3.977043783700     0.259124398613     0.171447926855
    H           -2.857878207091    -1.022682774232     0.635657842121
    H           -3.930640993905    -1.243400740178    -0.740290551732
    O           -2.378542398924    -0.022512035759    -1.110088984187
    H           -1.817162341607     0.599675537489    -0.660893518668

*** Psi4 exiting successfully. Buy a developer a beer!
