                               Psi4 1.2.1 release

  ==> Input File <==

--------------------------------------------------------------------------
memory 100 Gb

molecule conf_01 {
0 1
  C    -4.771619784200     1.385877568500    -0.110706598100
  H    -5.089701090900     1.275603557100    -1.148241652900
  H    -3.958900810400     2.109701541100    -0.100163633500
  C    -4.300038863300     0.042769258200     0.424665832500
  H    -3.960411094100     0.179066037000     1.448439173900
  H    -5.165411280700    -0.612190514100     0.471079151600
  C    -3.201256880100    -0.624508959300    -0.408928771300
  H    -3.039933972100    -1.627243826600    -0.021865570400
  H    -3.548184576300    -0.749979921400    -1.432966801600
  C    -1.863486336800     0.119276440300    -0.414094450300
  H    -1.109677958000    -0.446015918200    -0.953764586400
  H    -1.939957649600     1.092506502400    -0.888079416500
  H    -1.499452368300     0.272855669300     0.598153175200
  O    -5.830753801700     1.826257797300     0.690618189000
  H    -6.122534009500     2.679416270700     0.388827571600
  C    -8.254931600800     4.256380446400    -0.615363151500
  H    -8.633853519700     5.149846668300    -1.101695348400
  H    -8.878984021500     4.023973963500     0.241763939300
  H    -8.304753373400     3.433196406900    -1.312786415500
  O    -6.905006345300     4.405520472600    -0.250002941600
  H    -6.818150663100     5.110690539600     0.376112304900
}
set globals {
  reference rhf
  g_convergence gau_tight
  basis 6-31G(d)
}
set optking {
dynamic_level = 1
}
optimize('scf')
--------------------------------------------------------------------------

    Molecular point group: c1
  Charge       = 0
  Multiplicity = 1
  Basis Set: 6-31G(D)
    Blend: 6-31G(D)
  Basis Set: (6-31G(D) AUX)
    Blend: CC-PVDZ-JKFIT
  @DF-RHF Final Energy:  -347.18735383763334
    Total Energy =                       -347.1873538376333386
    Molecular point group: c1
  Basis Set: 6-31G(D)
    Blend: 6-31G(D)
  Basis Set: (6-31G(D) AUX)
    Blend: CC-PVDZ-JKFIT
  Basis Set: 6-31G(D)
    Blend: 6-31G(D)
  Basis Set: (6-31G(D) AUX)
    Blend: CC-PVDZ-JKFIT
  @DF-RHF Final Energy:  -347.18735361265010
    Total Energy =                       -347.1873536126500994
  Basis Set: 6-31G(D)
    Blend: 6-31G(D)
  Basis Set: (6-31G(D) AUX)
    Blend: CC-PVDZ-JKFIT
  Basis Set: 6-31G(D)
    Blend: 6-31G(D)
  @DF-RHF Final Energy:  -347.18735378881104
    Total Energy =                       -347.1873537888110377
  @DF-RHF Final Energy:  -346.45577758366449
    Total Energy =                       -346.4557775836644851
  @DF-RHF Final Energy:  -347.18735378894604
    Total Energy =                       -347.1873537889460408
  @DF-RHF Final Energy:  -347.18735378891495
    Total Energy =                       -347.1873537889149475
  @DF-RHF Final Energy:  -347.18735380962028
    Total Energy =                       -347.1873538096202765
  @DF-RHF Final Energy:  -347.18735381699406
    Total Energy =                       -347.1873538169940616
  @DF-RHF Final Energy:  -347.18735382037130
    Total Energy =                       -347.1873538203712997
  @DF-RHF Final Energy:  -347.18735382321103
    Total Energy =                       -347.1873538232110263
  @DF-RHF Final Energy:  -347.18735382549022
    Total Energy =                       -347.1873538254902201
  @DF-RHF Final Energy:  -347.18735382758257
    Total Energy =                       -347.1873538275825695
  Basis Set: (6-31G(D) AUX)
    Blend: CC-PVDZ-JKFIT
  Basis Set: 6-31G(D)
    Blend: 6-31G(D)
  Basis Set: (6-31G(D) AUX)
    Blend: CC-PVDZ-JKFIT
  @DF-RHF Final Energy:  -347.18735382856659
    Total Energy =                       -347.1873538285665859
  Basis Set: 6-31G(D)
    Blend: 6-31G(D)
  Basis Set: (6-31G(D) AUX)
    Blend: CC-PVDZ-JKFIT
  Charge       = 0
  Multiplicity = 1
  Basis Set: 6-31G(D)
    Blend: 6-31G(D)
  Basis Set: (6-31G(D) AUX)
    Blend: CC-PVDZ-JKFIT

    Orbital Energies [Eh]
    ---------------------

    Doubly Occupied:

       1A    -20.581691     2A    -20.522626     3A    -11.280903
       4A    -11.249476     5A    -11.209864     6A    -11.203681
       7A    -11.199279     8A     -1.383186     9A     -1.333581
      10A     -1.058601    11A     -0.958313    12A     -0.943814
      13A     -0.856208    14A     -0.772542    15A     -0.715901
      16A     -0.677825    17A     -0.638071    18A     -0.634113
      19A     -0.613714    20A     -0.605140    21A     -0.572349
      22A     -0.541842    23A     -0.525570    24A     -0.518705
      25A     -0.492368    26A     -0.468739    27A     -0.462787
      28A     -0.461737    29A     -0.438976    30A     -0.410725

  @DF-RHF Final Energy:  -347.18735383006822

   => Energetics <=

    Nuclear Repulsion Energy =            310.6412423024617055
    One-Electron Energy =               -1088.9925389154161621
    Two-Electron Energy =                 431.1639427828862381
    Total Energy =                       -347.1873538300682185

  Dipole Moment: [D]
     X:    -1.3975      Y:     2.4417      Z:    -0.6470     Total:     2.8868

    Molecular point group: c1
  Basis Set: 6-31G(D)
    Blend: 6-31G(D)
  Basis Set: (6-31G(D) AUX)
    Blend: CC-PVDZ-JKFIT

  -Total Gradient:
     Atom            X                  Y                   Z
    ------   -----------------  -----------------  -----------------
       1        0.000008961451    -0.000002101195    -0.000002678340
       2        0.000001561031    -0.000002563538     0.000001692686
       3       -0.000001034536    -0.000000581228    -0.000000677709
       4       -0.000001614184    -0.000001513368     0.000001260658
       5       -0.000000325162     0.000000743455    -0.000001125120
       6        0.000001341333    -0.000000062035     0.000000712889
       7        0.000000017387    -0.000001974315     0.000001261946
       8       -0.000000470836    -0.000000046466    -0.000000833983
       9        0.000001816271     0.000000414773     0.000000497630
      10        0.000000632366     0.000001340076    -0.000002280629
      11       -0.000000485597    -0.000000543083    -0.000000255873
      12        0.000001793246    -0.000000429844     0.000000399578
      13       -0.000001983305    -0.000000746288    -0.000000302093
      14       -0.000002930232     0.000006432204     0.000004263181
      15       -0.000005892900    -0.000003315875    -0.000009474989
      16       -0.000009539096     0.000004898348     0.000006330225
      17        0.000001977875    -0.000000277581     0.000000442506
      18       -0.000001197403     0.000000515625    -0.000001679171
      19        0.000006453484    -0.000000638526     0.000002280246
      20        0.000011492344    -0.000003255238     0.000002953843
      21       -0.000010573533     0.000003704100    -0.000002787481

  **** Optimization is complete! (in 9 steps) ****
    Final optimized geometry and variables:
    Molecular point group: c1

    Geometry (in Angstrom), charge = 0, multiplicity = 1:

    C            0.340728127337    -0.334748963608    -0.027658188083
    H            0.038130560824    -0.420306976059    -1.072100546837
    H            1.125493237095     0.417950492977     0.017789111372
    C            0.856649693196    -1.677374329773     0.466405915250
    H            1.179851246784    -1.564659766290     1.498310854852
    H            0.016092866055    -2.365307444621     0.479472454968
    C            1.988695089985    -2.273483635716    -0.376547494005
    H            2.183005626125    -3.282762459918    -0.023138835283
    H            1.658078230499    -2.374966995123    -1.408593662738
    C            3.297784862121    -1.481199816286    -0.338821860907
    H            4.077989592940    -1.998583526007    -0.888917288367
    H            3.190317604679    -0.495040715452    -0.778830420100
    H            3.644669301237    -1.350845317650     0.682650554742
    O           -0.742787300042     0.037523627406     0.775745827635
    H           -1.063190131125     0.889436894473     0.500658770949
    C           -3.243749703666     2.422940826618    -0.467188894733
    H           -3.651262650008     3.319729146715    -0.923300986054
    H           -3.866965587738     2.134540649871     0.373343228555
    H           -3.255598276943     1.625982993964    -1.196028968521
    O           -1.903977963404     2.608131446872    -0.081219027568
    H           -1.849937873220     3.291205725726     0.572465873991

*** Psi4 exiting successfully. Buy a developer a beer!
