                               Psi4 1.2.1 release

  ==> Input File <==

--------------------------------------------------------------------------
memory 110 Gb

molecule molecule_1_psi {
0 1
    C           -0.717169886130    -0.028221694508     0.004452327835
    H           -1.091321641961    -0.576498367921    -0.856875672564
    H           -1.113708927287     0.976801983697    -0.032397148070
    H           -1.083040707832    -0.508489916123     0.908869000386
    O            0.678415804156     0.077615785161    -0.006171283781
    H            1.060339122161    -0.787601652874     0.025333467469
}

set globals {
  reference rhf
  basis 6-31G(d)
}
frequency('scf', dertype=1)
--------------------------------------------------------------------------

    Molecular point group: c1
  Charge       = 0
  Multiplicity = 1
  Basis Set: 6-31G(D)
    Blend: 6-31G(D)
  Basis Set: (6-31G(D) AUX)
    Blend: CC-PVDZ-JKFIT
  @DF-RHF Final Energy:  -115.03535414343168
    Total Energy =                       -115.0353541434316753
    Molecular point group: c1
  Basis Set: 6-31G(D)
    Blend: 6-31G(D)
  Basis Set: (6-31G(D) AUX)
    Blend: CC-PVDZ-JKFIT
  Basis Set: 6-31G(D)
    Blend: 6-31G(D)
  Basis Set: (6-31G(D) AUX)
    Blend: CC-PVDZ-JKFIT
  @DF-RHF Final Energy:  -115.03535318152521
    Total Energy =                       -115.0353531815252097
  Basis Set: 6-31G(D)
    Blend: 6-31G(D)
  Basis Set: (6-31G(D) AUX)
    Blend: CC-PVDZ-JKFIT
  Basis Set: 6-31G(D)
    Blend: 6-31G(D)
  @DF-RHF Final Energy:  -115.03535316174514
    Total Energy =                       -115.0353531617451353
  @DF-RHF Final Energy:  -115.03535189893624
    Total Energy =                       -115.0353518989362414
  @DF-RHF Final Energy:  -115.03535190488995
    Total Energy =                       -115.0353519048899500
  @DF-RHF Final Energy:  -115.03535199918136
    Total Energy =                       -115.0353519991813585
  @DF-RHF Final Energy:  -115.03535200443639
    Total Energy =                       -115.0353520044363904
  @DF-RHF Final Energy:  -115.03535235236838
    Total Energy =                       -115.0353523523683776
  @DF-RHF Final Energy:  -115.03535233359841
    Total Energy =                       -115.0353523335984107
  @DF-RHF Final Energy:  -115.03535173022867
    Total Energy =                       -115.0353517302286690
  @DF-RHF Final Energy:  -115.03535170769646
    Total Energy =                       -115.0353517076964636
  @DF-RHF Final Energy:  -115.03535127732252
    Total Energy =                       -115.0353512773225191
  @DF-RHF Final Energy:  -115.03535127379863
    Total Energy =                       -115.0353512737986250
  @DF-RHF Final Energy:  -115.03535200023606
    Total Energy =                       -115.0353520002360597
  @DF-RHF Final Energy:  -115.03535201251258
    Total Energy =                       -115.0353520125125755
  @DF-RHF Final Energy:  -115.03535111904623
    Total Energy =                       -115.0353511190462257
  @DF-RHF Final Energy:  -115.03535113070801
    Total Energy =                       -115.0353511307080083
  @DF-RHF Final Energy:  -115.03535344592169
    Total Energy =                       -115.0353534459216860
  @DF-RHF Final Energy:  -115.03535344903203
    Total Energy =                       -115.0353534490320300
  @DF-RHF Final Energy:  -115.03535143734868
    Total Energy =                       -115.0353514373486803
  @DF-RHF Final Energy:  -115.03535142355746
    Total Energy =                       -115.0353514235574579
  @DF-RHF Final Energy:  -115.03535315111758
    Total Energy =                       -115.0353531511175760
  @DF-RHF Final Energy:  -115.03535314253736
    Total Energy =                       -115.0353531425373603
  @DF-RHF Final Energy:  -115.03534617070443
    Total Energy =                       -115.0353461707044289
  Basis Set: (6-31G(D) AUX)
    Blend: CC-PVDZ-JKFIT
  Basis Set: 6-31G(D)
    Blend: 6-31G(D)
  Basis Set: (6-31G(D) AUX)
    Blend: CC-PVDZ-JKFIT
  @DF-RHF Final Energy:  -115.03534608045585
    Total Energy =                       -115.0353460804558523
  Basis Set: 6-31G(D)
    Blend: 6-31G(D)
  Basis Set: (6-31G(D) AUX)
    Blend: CC-PVDZ-JKFIT
    Molecular point group: c1
  Charge       = 0
  Multiplicity = 1
  Basis Set: 6-31G(D)
    Blend: 6-31G(D)
  Basis Set: (6-31G(D) AUX)
    Blend: CC-PVDZ-JKFIT

    Orbital Energies [Eh]
    ---------------------

    Doubly Occupied:

       1A    -20.555376     2A    -11.266760     3A     -1.360291
       4A     -0.926848     5A     -0.693626     6A     -0.620848
       7A     -0.595337     8A     -0.497346     9A     -0.443292

  @DF-RHF Final Energy:  -115.03535414350924

   => Energetics <=

    Nuclear Repulsion Energy =             40.7863870532766057
    One-Electron Energy =                -237.7240366892165468
    Two-Electron Energy =                  81.9022954924307101
    Total Energy =                       -115.0353541435092382

  Dipole Moment: [D]
     X:    -0.9350      Y:    -1.6150      Z:     0.0665     Total:     1.8673

    Molecular point group: c1

    Geometry (in Angstrom), charge = 0, multiplicity = 1:

       Center              X                  Y                   Z               Mass
    ------------   -----------------  -----------------  -----------------  -----------------
         C           -0.717169886130    -0.028221694508     0.004452327835    12.000000000000
         H           -1.091321641961    -0.576498367921    -0.856875672564     1.007825032070
         H           -1.113708927287     0.976801983697    -0.032397148070     1.007825032070
         H           -1.083040707832    -0.508489916123     0.908869000386     1.007825032070
         O            0.678415804156     0.077615785161    -0.006171283781    15.994914619560
         H            1.060339122161    -0.787601652874     0.025333467469     1.007825032070

  Basis Set: 6-31G(D)
    Blend: 6-31G(D)
  Basis Set: (6-31G(D) AUX)
    Blend: CC-PVDZ-JKFIT

  -Total Gradient:
     Atom            X                  Y                   Z
    ------   -----------------  -----------------  -----------------
       1        0.000004667876    -0.000002192249    -0.000001155238
       2        0.000001010525     0.000001834274     0.000000243459
       3       -0.000001908030     0.000000552739    -0.000000062883
       4        0.000000136491     0.000001148213     0.000001049617
       5       -0.000004577537    -0.000000470720     0.000000082161
       6        0.000000670677    -0.000000872257    -0.000000157115

  Vibration                       7                   8                   9
  Freq [cm^-1]                 348.1787           1164.4388           1188.3636
  Irrep                           A                   A                   A
  Reduced mass [u]              1.0716              1.0999              5.8047
  Force const [mDyne/A]         0.0765              0.8787              4.8298

  Vibration                       10                  11                  12
  Freq [cm^-1]                1289.6388           1507.8602           1637.8004
  Irrep                           A                   A                   A
  Reduced mass [u]              1.2656              1.2953              1.1570
  Force const [mDyne/A]         1.2402              1.7352              1.8285

  Vibration                       13                  14                  15
  Freq [cm^-1]                1651.7793           1663.6468           3185.4668
  Irrep                           A                   A                   A
  Reduced mass [u]              1.0500              1.0518              1.0369
  Force const [mDyne/A]         1.6879              1.7152              6.1990

  Vibration                       16                  17                  18
  Freq [cm^-1]                3231.5349           3305.7584           4117.6131
  Irrep                           A                   A                   A
  Reduced mass [u]              1.1064              1.0990              1.0670
  Force const [mDyne/A]         6.8072              7.0759             10.6583

  ==> Thermochemistry Components <==

  Entropy, S
    Electronic S            0.000 [cal/(mol K)]        0.000 [J/(mol K)]       0.00000000 [mEh/K] (multiplicity = 1)
    Translational S        36.324 [cal/(mol K)]      151.980 [J/(mol K)]       0.05788607 [mEh/K] (mol. weight = 32.0262 [u], P = 101325.00 [Pa])
    Rotational S           18.914 [cal/(mol K)]       79.136 [J/(mol K)]       0.03014139 [mEh/K] (symmetry no. = 1)
    Vibrational S           1.324 [cal/(mol K)]        5.540 [J/(mol K)]       0.00211016 [mEh/K]
  Total S                  56.562 [cal/(mol K)]      236.656 [J/(mol K)]       0.09013761 [mEh/K]
  Correction S              0.000 [cal/(mol K)]        0.000 [J/(mol K)]       0.00000000 [mEh/K]

  Constant volume heat capacity, Cv
    Electronic Cv           0.000 [cal/(mol K)]        0.000 [J/(mol K)]       0.00000000 [mEh/K]
    Translational Cv        2.981 [cal/(mol K)]       12.472 [J/(mol K)]       0.00475022 [mEh/K]
    Rotational Cv           2.981 [cal/(mol K)]       12.472 [J/(mol K)]       0.00475022 [mEh/K]
    Vibrational Cv          2.378 [cal/(mol K)]        9.952 [J/(mol K)]       0.00379033 [mEh/K]
  Total Cv                  8.340 [cal/(mol K)]       34.895 [J/(mol K)]       0.01329078 [mEh/K]
  Correction Cv             0.000 [cal/(mol K)]        0.000 [J/(mol K)]       0.00000000 [mEh/K]

  Constant pressure heat capacity, Cp
    Electronic Cp           0.000 [cal/(mol K)]        0.000 [J/(mol K)]       0.00000000 [mEh/K]
    Translational Cp        4.968 [cal/(mol K)]       20.786 [J/(mol K)]       0.00791704 [mEh/K]
    Rotational Cp           2.981 [cal/(mol K)]       12.472 [J/(mol K)]       0.00475022 [mEh/K]
    Vibrational Cp          2.378 [cal/(mol K)]        9.952 [J/(mol K)]       0.00379033 [mEh/K]
  Total Cp                 10.327 [cal/(mol K)]       43.209 [J/(mol K)]       0.01645759 [mEh/K]
  Correction Cp             0.000 [cal/(mol K)]        0.000 [J/(mol K)]       0.00000000 [mEh/K]

  ==> Thermochemistry Energy Analysis <==

  Raw electronic energy, E0
  Total E0, Electronic energy at well bottom at 0 [K]                 -115.03535414 [Eh]

  Zero-point energy, ZPE_vib = Sum_i nu_i / 2
    Electronic ZPE          0.000 [kcal/mol]        0.000 [kJ/mol]       0.00000000 [Eh]
    Translational ZPE       0.000 [kcal/mol]        0.000 [kJ/mol]       0.00000000 [Eh]
    Rotational ZPE          0.000 [kcal/mol]        0.000 [kJ/mol]       0.00000000 [Eh]
    Vibrational ZPE        34.727 [kcal/mol]      145.299 [kJ/mol]       0.05534142 [Eh]       12146.036 [cm^-1]
  Correction ZPE           34.727 [kcal/mol]      145.299 [kJ/mol]       0.05534142 [Eh]       12146.036 [cm^-1]
  Total ZPE, Electronic energy at 0 [K]                               -114.98001272 [Eh]

  Thermal Energy, E (includes ZPE)
    Electronic E            0.000 [kcal/mol]        0.000 [kJ/mol]       0.00000000 [Eh]
    Translational E         0.889 [kcal/mol]        3.718 [kJ/mol]       0.00141628 [Eh]
    Rotational E            0.889 [kcal/mol]        3.718 [kJ/mol]       0.00141628 [Eh]
    Vibrational E          34.994 [kcal/mol]      146.413 [kJ/mol]       0.05576586 [Eh]
  Correction E             36.771 [kcal/mol]      153.850 [kJ/mol]       0.05859842 [Eh]
  Total E, Electronic energy at  298.15 [K]                           -114.97675572 [Eh]

  Enthalpy, H_trans = E_trans + k_B * T
    Electronic H            0.000 [kcal/mol]        0.000 [kJ/mol]       0.00000000 [Eh]
    Translational H         1.481 [kcal/mol]        6.197 [kJ/mol]       0.00236046 [Eh]
    Rotational H            0.889 [kcal/mol]        3.718 [kJ/mol]       0.00141628 [Eh]
    Vibrational H          34.994 [kcal/mol]      146.413 [kJ/mol]       0.05576586 [Eh]
  Correction H             37.364 [kcal/mol]      156.329 [kJ/mol]       0.05954261 [Eh]
  Total H, Enthalpy at  298.15 [K]                                    -114.97581154 [Eh]

  Gibbs free energy, G = H - T * S
    Electronic G            0.000 [kcal/mol]        0.000 [kJ/mol]       0.00000000 [Eh]
    Translational G        -9.349 [kcal/mol]      -39.115 [kJ/mol]      -0.01489827 [Eh]
    Rotational G           -4.750 [kcal/mol]      -19.876 [kJ/mol]      -0.00757038 [Eh]
    Vibrational G          34.599 [kcal/mol]      144.761 [kJ/mol]       0.05513672 [Eh]
  Correction G             20.500 [kcal/mol]       85.770 [kJ/mol]       0.03266808 [Eh]
  Total G, Free enthalpy at  298.15 [K]                               -115.00268607 [Eh]

*** Psi4 exiting successfully. Buy a developer a beer!
