                               Psi4 1.2.1 release

  ==> Input File <==

--------------------------------------------------------------------------
memory 110 Gb

molecule molecule_2_psi {
0 1
    C           -0.719743990292     0.012301564546     0.005658769153
    H           -1.074916777877     1.038032036332    -0.018183723069
    H           -1.106621706473    -0.459864178762     0.901864569381
    H           -1.121239107053    -0.505833948326    -0.858132438726
    O            0.681563884978    -0.064329684129    -0.003984221719
    H            1.055732526594     0.802152239195    -0.029693912495
}

set globals {
  reference rhf
  opt_type ts
  basis 6-31G(d)
}
frequency('scf', dertype=1)
--------------------------------------------------------------------------

    Molecular point group: c1
  Charge       = 0
  Multiplicity = 1
  Basis Set: 6-31G(D)
    Blend: 6-31G(D)
  Basis Set: (6-31G(D) AUX)
    Blend: CC-PVDZ-JKFIT
  @DF-RHF Final Energy:  -115.03318804616755
    Total Energy =                       -115.0331880461675524
    Molecular point group: c1
  Basis Set: 6-31G(D)
    Blend: 6-31G(D)
  Basis Set: (6-31G(D) AUX)
    Blend: CC-PVDZ-JKFIT
  Basis Set: 6-31G(D)
    Blend: 6-31G(D)
  Basis Set: (6-31G(D) AUX)
    Blend: CC-PVDZ-JKFIT
  @DF-RHF Final Energy:  -115.03318707914198
    Total Energy =                       -115.0331870791419817
  Basis Set: 6-31G(D)
    Blend: 6-31G(D)
  Basis Set: (6-31G(D) AUX)
    Blend: CC-PVDZ-JKFIT
  Basis Set: 6-31G(D)
    Blend: 6-31G(D)
  @DF-RHF Final Energy:  -115.03318708474502
    Total Energy =                       -115.0331870847450233
  @DF-RHF Final Energy:  -115.03318585151921
    Total Energy =                       -115.0331858515192067
  @DF-RHF Final Energy:  -115.03318584297884
    Total Energy =                       -115.0331858429788383
  @DF-RHF Final Energy:  -115.03318586778131
    Total Energy =                       -115.0331858677813130
  @DF-RHF Final Energy:  -115.03318586673296
    Total Energy =                       -115.0331858667329641
  @DF-RHF Final Energy:  -115.03318631739212
    Total Energy =                       -115.0331863173921221
  @DF-RHF Final Energy:  -115.03318631352529
    Total Energy =                       -115.0331863135252917
  @DF-RHF Final Energy:  -115.03318439389361
    Total Energy =                       -115.0331843938936061
  @DF-RHF Final Energy:  -115.03318442063504
    Total Energy =                       -115.0331844206350382
  @DF-RHF Final Energy:  -115.03318623564972
    Total Energy =                       -115.0331862356497226
  @DF-RHF Final Energy:  -115.03318623546146
    Total Energy =                       -115.0331862354614572
  @DF-RHF Final Energy:  -115.03318579229850
    Total Energy =                       -115.0331857922984966
  @DF-RHF Final Energy:  -115.03318578734378
    Total Energy =                       -115.0331857873437826
  @DF-RHF Final Energy:  -115.03318765806141
    Total Energy =                       -115.0331876580614079
  @DF-RHF Final Energy:  -115.03318766074396
    Total Energy =                       -115.0331876607439625
  @DF-RHF Final Energy:  -115.03318488511574
    Total Energy =                       -115.0331848851157446
  @DF-RHF Final Energy:  -115.03318489873648
    Total Energy =                       -115.0331848987364793
  @DF-RHF Final Energy:  -115.03318513847046
    Total Energy =                       -115.0331851384704578
  @DF-RHF Final Energy:  -115.03318511919500
    Total Energy =                       -115.0331851191949966
  @DF-RHF Final Energy:  -115.03318735401683
    Total Energy =                       -115.0331873540168317
  @DF-RHF Final Energy:  -115.03318735260896
    Total Energy =                       -115.0331873526089623
  @DF-RHF Final Energy:  -115.03317994225851
    Total Energy =                       -115.0331799422585135
  Basis Set: (6-31G(D) AUX)
    Blend: CC-PVDZ-JKFIT
  Basis Set: 6-31G(D)
    Blend: 6-31G(D)
  Basis Set: (6-31G(D) AUX)
    Blend: CC-PVDZ-JKFIT
  @DF-RHF Final Energy:  -115.03317985220778
    Total Energy =                       -115.0331798522077804
  Basis Set: 6-31G(D)
    Blend: 6-31G(D)
  Basis Set: (6-31G(D) AUX)
    Blend: CC-PVDZ-JKFIT
    Molecular point group: c1
  Charge       = 0
  Multiplicity = 1
  Basis Set: 6-31G(D)
    Blend: 6-31G(D)
  Basis Set: (6-31G(D) AUX)
    Blend: CC-PVDZ-JKFIT

    Orbital Energies [Eh]
    ---------------------

    Doubly Occupied:

       1A    -20.553151     2A    -11.266827     3A     -1.357958
       4A     -0.927258     5A     -0.693491     6A     -0.619197
       7A     -0.595952     8A     -0.496892     9A     -0.440949

  @DF-RHF Final Energy:  -115.03318804618561

   => Energetics <=

    Nuclear Repulsion Energy =             40.7275980624984797
    One-Electron Energy =                -237.6182221177811300
    Two-Electron Energy =                  81.8574360090970288
    Total Energy =                       -115.0331880461856144

  Dipole Moment: [D]
     X:    -0.9619      Y:     1.7076      Z:    -0.0366     Total:     1.9602

    Molecular point group: c1

    Geometry (in Angstrom), charge = 0, multiplicity = 1:

       Center              X                  Y                   Z               Mass
    ------------   -----------------  -----------------  -----------------  -----------------
         C           -0.719743990292     0.012301564546     0.005658769153    12.000000000000
         H           -1.074916777877     1.038032036332    -0.018183723069     1.007825032070
         H           -1.106621706473    -0.459864178762     0.901864569381     1.007825032070
         H           -1.121239107053    -0.505833948326    -0.858132438726     1.007825032070
         O            0.681563884978    -0.064329684129    -0.003984221719    15.994914619560
         H            1.055732526594     0.802152239195    -0.029693912495     1.007825032070

  Basis Set: 6-31G(D)
    Blend: 6-31G(D)
  Basis Set: (6-31G(D) AUX)
    Blend: CC-PVDZ-JKFIT

  -Total Gradient:
     Atom            X                  Y                   Z
    ------   -----------------  -----------------  -----------------
       1       -0.000002276352     0.000000560414     0.000000103890
       2        0.000000257263    -0.000000451038    -0.000000012583
       3       -0.000000001657    -0.000000177159    -0.000000113042
       4        0.000000381818     0.000000122604     0.000000192645
       5        0.000000971582    -0.000001161981     0.000000099970
       6        0.000000667343     0.000001107161    -0.000000270881

  Vibration                       1                   8                   9
  Freq [cm^-1]                351.3157i           1180.4036           1188.4029
  Irrep                           A                   A                   A
  Reduced mass [u]              1.0894              7.0471              1.0842
  Force const [mDyne/A]        -0.0792              5.7853              0.9021

  Vibration                       10                  11                  12
  Freq [cm^-1]                1297.9805           1487.6752           1643.3310
  Irrep                           A                   A                   A
  Reduced mass [u]              1.2411              1.2741              1.1563
  Force const [mDyne/A]         1.2320              1.6613              1.8397

  Vibration                       13                  14                  15
  Freq [cm^-1]                1643.8310           1669.8013           3200.8130
  Irrep                           A                   A                   A
  Reduced mass [u]              1.0495              1.0468              1.0324
  Force const [mDyne/A]         1.6709              1.7196              6.2316

  Vibration                       16                  17                  18
  Freq [cm^-1]                3262.1095           3270.7988           4151.0957
  Irrep                           A                   A                   A
  Reduced mass [u]              1.1046              1.1070              1.0678
  Force const [mDyne/A]         6.9253              6.9777             10.8405

  ==> Thermochemistry Components <==

  Entropy, S
    Electronic S            0.000 [cal/(mol K)]        0.000 [J/(mol K)]       0.00000000 [mEh/K] (multiplicity = 1)
    Translational S        36.324 [cal/(mol K)]      151.980 [J/(mol K)]       0.05788607 [mEh/K] (mol. weight = 32.0262 [u], P = 101325.00 [Pa])
    Rotational S           18.921 [cal/(mol K)]       79.164 [J/(mol K)]       0.03015200 [mEh/K] (symmetry no. = 1)
    Vibrational S           0.147 [cal/(mol K)]        0.613 [J/(mol K)]       0.00023365 [mEh/K]
  Total S                  55.391 [cal/(mol K)]      231.757 [J/(mol K)]       0.08827172 [mEh/K]
  Correction S              0.000 [cal/(mol K)]        0.000 [J/(mol K)]       0.00000000 [mEh/K]

  Constant volume heat capacity, Cv
    Electronic Cv           0.000 [cal/(mol K)]        0.000 [J/(mol K)]       0.00000000 [mEh/K]
    Translational Cv        2.981 [cal/(mol K)]       12.472 [J/(mol K)]       0.00475022 [mEh/K]
    Rotational Cv           2.981 [cal/(mol K)]       12.472 [J/(mol K)]       0.00475022 [mEh/K]
    Vibrational Cv          0.789 [cal/(mol K)]        3.300 [J/(mol K)]       0.00125707 [mEh/K]
  Total Cv                  6.750 [cal/(mol K)]       28.244 [J/(mol K)]       0.01075751 [mEh/K]
  Correction Cv             0.000 [cal/(mol K)]        0.000 [J/(mol K)]       0.00000000 [mEh/K]

  Constant pressure heat capacity, Cp
    Electronic Cp           0.000 [cal/(mol K)]        0.000 [J/(mol K)]       0.00000000 [mEh/K]
    Translational Cp        4.968 [cal/(mol K)]       20.786 [J/(mol K)]       0.00791704 [mEh/K]
    Rotational Cp           2.981 [cal/(mol K)]       12.472 [J/(mol K)]       0.00475022 [mEh/K]
    Vibrational Cp          0.789 [cal/(mol K)]        3.300 [J/(mol K)]       0.00125707 [mEh/K]
  Total Cp                  8.738 [cal/(mol K)]       36.558 [J/(mol K)]       0.01392433 [mEh/K]
  Correction Cp             0.000 [cal/(mol K)]        0.000 [J/(mol K)]       0.00000000 [mEh/K]

  ==> Thermochemistry Energy Analysis <==

  Raw electronic energy, E0
  Total E0, Electronic energy at well bottom at 0 [K]                 -115.03318805 [Eh]

  Zero-point energy, ZPE_vib = Sum_i nu_i / 2
    Electronic ZPE          0.000 [kcal/mol]        0.000 [kJ/mol]       0.00000000 [Eh]
    Translational ZPE       0.000 [kcal/mol]        0.000 [kJ/mol]       0.00000000 [Eh]
    Rotational ZPE          0.000 [kcal/mol]        0.000 [kJ/mol]       0.00000000 [Eh]
    Vibrational ZPE        34.304 [kcal/mol]      143.529 [kJ/mol]       0.05466745 [Eh]       11998.117 [cm^-1]
  Correction ZPE           34.304 [kcal/mol]      143.529 [kJ/mol]       0.05466745 [Eh]       11998.117 [cm^-1]
  Total ZPE, Electronic energy at 0 [K]                               -114.97852059 [Eh]

  Thermal Energy, E (includes ZPE)
    Electronic E            0.000 [kcal/mol]        0.000 [kJ/mol]       0.00000000 [Eh]
    Translational E         0.889 [kcal/mol]        3.718 [kJ/mol]       0.00141628 [Eh]
    Rotational E            0.889 [kcal/mol]        3.718 [kJ/mol]       0.00141628 [Eh]
    Vibrational E          34.342 [kcal/mol]      143.687 [kJ/mol]       0.05472739 [Eh]
  Correction E             36.119 [kcal/mol]      151.124 [kJ/mol]       0.05755994 [Eh]
  Total E, Electronic energy at  298.15 [K]                           -114.97562810 [Eh]

  Enthalpy, H_trans = E_trans + k_B * T
    Electronic H            0.000 [kcal/mol]        0.000 [kJ/mol]       0.00000000 [Eh]
    Translational H         1.481 [kcal/mol]        6.197 [kJ/mol]       0.00236046 [Eh]
    Rotational H            0.889 [kcal/mol]        3.718 [kJ/mol]       0.00141628 [Eh]
    Vibrational H          34.342 [kcal/mol]      143.687 [kJ/mol]       0.05472739 [Eh]
  Correction H             36.712 [kcal/mol]      153.603 [kJ/mol]       0.05850413 [Eh]
  Total H, Enthalpy at  298.15 [K]                                    -114.97468392 [Eh]

  Gibbs free energy, G = H - T * S
    Electronic G            0.000 [kcal/mol]        0.000 [kJ/mol]       0.00000000 [Eh]
    Translational G        -9.349 [kcal/mol]      -39.115 [kJ/mol]      -0.01489827 [Eh]
    Rotational G           -4.752 [kcal/mol]      -19.884 [kJ/mol]      -0.00757354 [Eh]
    Vibrational G          34.298 [kcal/mol]      143.504 [kJ/mol]       0.05465772 [Eh]
  Correction G             20.197 [kcal/mol]       84.504 [kJ/mol]       0.03218592 [Eh]
  Total G, Free enthalpy at  298.15 [K]                               -115.00100213 [Eh]

*** Psi4 exiting successfully. Buy a developer a beer!
