                               Psi4 1.1a2.dev170

  ==> Input File <==

--------------------------------------------------------------------------
memory 110 Gb

molecule molecule_1 {
0 1
C         -0.73000       -0.03100       -0.00300
H         -1.10500       -0.58000       -0.86400
H         -1.12700        0.97300       -0.04000
H         -1.09500       -0.51200        0.90200
O          0.66500        0.07500       -0.01400
H          1.04700       -0.79000        0.01700
}

set globals {
  reference rhf
  g_convergence gau_tight
  basis 6-31G(d)
}
optimize('scf')
--------------------------------------------------------------------------

    Molecular point group: c1
  Charge       = 0
  Multiplicity = 1
  Basis Set: file /usr/local/hpc5/psi4conda/envs/p4env/share/psi4/basis/6-31g_d_.gbs
  Basis Set: file /usr/local/hpc5/psi4conda/envs/p4env/share/psi4/basis/cc-pvdz-jkfit.gbs
  @DF-RHF Final Energy:  -115.03535304956414
    Total Energy =                       -115.0353530495641365
    Molecular point group: c1
  Basis Set: file /usr/local/hpc5/psi4conda/envs/p4env/share/psi4/basis/6-31g_d_.gbs
  Basis Set: file /usr/local/hpc5/psi4conda/envs/p4env/share/psi4/basis/cc-pvdz-jkfit.gbs
  Basis Set: file /usr/local/hpc5/psi4conda/envs/p4env/share/psi4/basis/6-31g_d_.gbs
  Basis Set: file /usr/local/hpc5/psi4conda/envs/p4env/share/psi4/basis/cc-pvdz-jkfit.gbs
  @DF-RHF Final Energy:  -115.03535409319817
    Total Energy =                       -115.0353540931981655
  Basis Set: file /usr/local/hpc5/psi4conda/envs/p4env/share/psi4/basis/6-31g_d_.gbs
  Basis Set: file /usr/local/hpc5/psi4conda/envs/p4env/share/psi4/basis/cc-pvdz-jkfit.gbs
  Basis Set: file /usr/local/hpc5/psi4conda/envs/p4env/share/psi4/basis/6-31g_d_.gbs
  Basis Set: file /usr/local/hpc5/psi4conda/envs/p4env/share/psi4/basis/cc-pvdz-jkfit.gbs
  @DF-RHF Final Energy:  -115.03535413989871
    Total Energy =                       -115.0353541398987147
  Basis Set: file /usr/local/hpc5/psi4conda/envs/p4env/share/psi4/basis/6-31g_d_.gbs
  Basis Set: file /usr/local/hpc5/psi4conda/envs/p4env/share/psi4/basis/cc-pvdz-jkfit.gbs
  Charge       = 0
  Multiplicity = 1
  Basis Set: file /usr/local/hpc5/psi4conda/envs/p4env/share/psi4/basis/6-31g_d_.gbs
  Basis Set: file /usr/local/hpc5/psi4conda/envs/p4env/share/psi4/basis/cc-pvdz-jkfit.gbs

    Orbital Energies (a.u.)
    -----------------------

    Doubly Occupied:

       1A    -20.555376     2A    -11.266760     3A     -1.360291
       4A     -0.926848     5A     -0.693626     6A     -0.620848
       7A     -0.595337     8A     -0.497346     9A     -0.443292

  @DF-RHF Final Energy:  -115.03535414347274

   => Energetics <=

    Nuclear Repulsion Energy =             40.7863870532689390
    One-Electron Energy =                -237.7240367003811912
    Two-Electron Energy =                  81.9022955036395217
    DFT Exchange-Correlation Energy =       0.0000000000000000
    Empirical Dispersion Energy =           0.0000000000000000
    PCM Polarization Energy =               0.0000000000000000
    EFP Energy =                            0.0000000000000000
    Total Energy =                       -115.0353541434727447
    Molecular point group: c1
  Basis Set: file /usr/local/hpc5/psi4conda/envs/p4env/share/psi4/basis/6-31g_d_.gbs
  Basis Set: file /usr/local/hpc5/psi4conda/envs/p4env/share/psi4/basis/cc-pvdz-jkfit.gbs

  -Total Gradient:
     Atom            X                  Y                   Z
    ------   -----------------  -----------------  -----------------
       1        0.000004666534    -0.000002187781    -0.000001148714
       2        0.000001015857     0.000001833160     0.000000241881
       3       -0.000001905828     0.000000547038    -0.000000064364
       4        0.000000134668     0.000001150835     0.000001043995
       5       -0.000004585523    -0.000000472282     0.000000073135
       6        0.000000674292    -0.000000870970    -0.000000145932

  **** Optimization is complete! (in 4 steps) ****
    Final optimized geometry and variables:
    Molecular point group: c1

    Geometry (in Angstrom), charge = 0, multiplicity = 1:

    C           -0.717169886130    -0.028221694508     0.004452327835
    H           -1.091321641961    -0.576498367921    -0.856875672564
    H           -1.113708927287     0.976801983697    -0.032397148070
    H           -1.083040707832    -0.508489916123     0.908869000386
    O            0.678415804156     0.077615785161    -0.006171283781
    H            1.060339122161    -0.787601652874     0.025333467469

*** Psi4 exiting successfully. Buy a developer a beer!
